                  Welcome to Q-Chem
     A Quantum Leap Into The Future Of Chemistry


 Q-Chem 6.1 (devel), Q-Chem, Inc., Pleasanton, CA (2022)

 E. Epifanovsky,  A. T. B. Gilbert,  Xintian Feng,  Joonho Lee,  Yuezhi Mao,  
 N. Mardirossian,  P. Pokhilko,  A. White,  M. Wormit,  M. P. Coons,  
 A. L. Dempwolff,  Zhengting Gan,  D. Hait,  P. R. Horn,  L. D. Jacobson,  
 I. Kaliman,  J. Kussmann,  A. W. Lange,  Ka Un Lao,  D. S. Levine,  Jie Liu,  
 S. C. McKenzie,  A. F. Morrison,  K. D. Nanda,  F. Plasser,  D. R. Rehn,  
 M. L. Vidal,  Zhi-Qiang You,  Ying Zhu,  B. Alam,  B. Albrecht,  
 A. Aldossary,  E. Alguire,  J. H. Andersen,  V. Athavale,  D. Barton,  
 K. Begam,  A. Behn,  N. Bellonzi,  Y. A. Bernard,  E. J. Berquist,  
 H. Burton,  A. Carreras,  K. Carter-Fenk,  Mathew Chow,  Romit Chakraborty,  
 Chandrima Chakravarty,  Junhan Chen,  A. D. Chien,  K. D. Closser,  
 V. Cofer-Shabica,  L. Cunha,  S. Dasgupta,  Jia Deng,  M. de Wergifosse,  
 M. Diedenhofen,  Hainam Do,  S. Ehlert,  Po-Tung Fang,  S. Fatehi,  
 Qingguo Feng,  T. Friedhoff,  Thomas Froitzheim,  B. Ganoe,  J. Gayvert,  
 Qinghui Ge,  G. Gidofalvi,  M. Gimferrer,  M. Goldey,  Montgomery Gray,  
 J. Gomes,  C. Gonzalez-Espinoza,  S. Gulania,  A. Gunina,  J. A. Gyamfi,  
 M. W. D. Hanson-Heine,  P. H. P. Harbach,  A. W. Hauser,  M. F. Herbst,  
 M. Hernandez Vera,  M. Hodecker,  Z. C. Holden,  S. Houck,  Xunkun Huang,  
 Kerwin Hui,  B. C. Huynh,  K. Ikeda,  M. Ivanov,  Hyunjun Ji,  Zuxin Jin,  
 Hanjie Jiang,  Subrata Jana,  B. Kaduk,  S. Kaehler,  R. Kang,  
 K. Khistyaev,  Jaehoon Kim,  Yongbin Kim,  P. Klunzinger,  Z. Koczor-Benda,  
 Joong Hoon Koh,  D. Kosenkov,  Saikiran Kotaru,  L. Koulias,  T. Kowalczyk,  
 C. M. Krauter,  K. Kue,  A. Kunitsa,  T. Kus,  A. Landau,  K. V. Lawler,  
 D. Lefrancois,  S. Lehtola,  Rain Li,  Shaozhi Li,  Yi-Pei Li,  
 Jiashu Liang,  M. Liebenthal,  Hung-Hsuan Lin,  You-Sheng Lin,  Fenglai Liu,  
 Kuan-Yu Liu,  Xiao Liu,  M. Loipersberger,  A. Luenser,  C. Malbon,  
 A. Manjanath,  P. Manohar,  E. Mansoor,  S. F. Manzer,  Shan-Ping Mao,  
 A. V. Marenich,  T. Markovich,  S. Mason,  F. Matz,  S. A. Maurer,  
 P. F. McLaughlin,  M. F. S. J. Menger,  J.-M. Mewes,  S. A. Mewes,  
 P. Morgante,  Mohammad Mostafanejad,  J. W. Mullinax,  K. J. Oosterbaan,  
 G. Paran,  V. Parravicini,  Alexander C. Paul,  Suranjan K. Paul,  
 F. Pavosevic,  Zheng Pei,  S. Prager,  E. I. Proynov,  E. Ramos,  B. Rana,  
 A. E. Rask,  A. Rettig,  R. M. Richard,  F. Rob,  E. Rossomme,  T. Scheele,  
 M. Scheurer,  M. Schneider,  P. E. Schneider,  Tim K. Schramm,  N. Sergueev,  
 S. M. Sharada,  M. Sharma,  Hengyuan Shen,  W. Skomorowski,  D. W. Small,  
 C. J. Stein,  Alistair J. Sterling,  Yingli Su,  Yu-Chuan Su,  
 E. J. Sundstrom,  J. Talbot,  Zhen Tao,  J. Thirman,  Hung-Yi Tsai,  
 T. Tsuchimochi,  N. M. Tubman,  C. Utku,  S. P. Veccham,  O. Vydrov,  
 J. Wenzel,  Jonathan Wong,  J. Witte,  A. Yamada,  Chou-Hsun Yang,  Kun Yao,  
 S. Yeganeh,  S. R. Yost,  A. Zech,  F. Zeller,  Igor Ying Zhang,  
 Xing Zhang,  Yu Zhang,  D. Zuev,  A. Aspuru-Guzik,  A. T. Bell,  
 N. A. Besley,  K. B. Bravaya,  B. R. Brooks,  D. Casanova,  Jeng-Da Chai,  
 Hsing-Ta Chen,  S. Coriani,  C. J. Cramer,  A. E. DePrince, III,  
 R. A. DiStasio Jr.,  A. Dreuw,  B. D. Dunietz,  T. R. Furlani,  
 W. A. Goddard III,  S. Grimme,  S. Hammes-Schiffer,  T. Head-Gordon,  
 W. J. Hehre,  Chao-Ping Hsu,  T.-C. Jagau,  Yousung Jung,  A. Klamt,  
 Jing Kong,  D. S. Lambrecht,  Xiangyuan Li,  WanZhen Liang,  N. J. Mayhall,  
 C. W. McCurdy,  J. B. Neaton,  T. Neudecker,  C. Ochsenfeld,  
 J. A. Parkhill,  R. Peverati,  V. A. Rassolov,  Haisheng Ren,  Yihan Shao,  
 L. V. Slipchenko,  R. P. Steele,  J. E. Subotnik,  A. J. W. Thom,  
 A. Tkatchenko,  D. G. Truhlar,  T. Van Voorhis,  Fan Wang,  
 T. A. Wesolowski,  K. B. Whaley,  H. L. Woodcock III,  P. M. Zimmerman,  
 S. Faraji,  P. M. W. Gill,  M. Head-Gordon,  J. M. Herbert,  A. I. Krylov

 Contributors to earlier versions of Q-Chem not listed above: 
 R. D. Adamson,  B. Austin,  R. Baer,  J. Baker,  G. J. O. Beran,  
 K. Brandhorst,  S. T. Brown,  E. F. C. Byrd,  Arup K. Chakraborty,  
 G. K. L. Chan,  Chun-Min Chang,  Yunqing Chen,  C.-L. Cheng,  
 Siu Hung Chien,  D. M. Chipman,  D. L. Crittenden,  H. Dachsel,  
 R. J. Doerksen,  A. D. Dutoi,  R. G. Edgar,  J. Fosso-Tande,  
 L. Fusti-Molnar,  D. Ghosh,  A. Ghysels,  A. Golubeva-Zadorozhnaya,  
 J. Gonthier,  M. S. Gordon,  S. R. Gwaltney,  G. Hawkins,  J. E. Herr,  
 A. Heyden,  S. Hirata,  E. G. Hohenstein,  G. Kedziora,  F. J. Keil,  
 C. Kelley,  Jihan Kim,  R. A. King,  R. Z. Khaliullin,  P. P. Korambath,  
 W. Kurlancheek,  A. Laurent,  A. M. Lee,  M. S. Lee,  S. V. Levchenko,  
 Ching Yeh Lin,  D. Liotard,  E. Livshits,  R. C. Lochan,  I. Lotan,  
 L. A. Martinez-Martinez,  P. E. Maslen,  N. Nair,  D. P. O'Neill,  
 D. Neuhauser,  E. Neuscamman,  C. M. Oana,  R. Olivares-Amaya,  R. Olson,  
 T. M. Perrine,  B. Peters,  P. A. Pieniazek,  A. Prociuk,  Y. M. Rhee,  
 J. Ritchie,  M. A. Rohrdanz,  E. Rosta,  N. J. Russ,  H. F. Schaefer III,  
 M. W. Schmidt,  N. E. Schultz,  S. Sharma,  N. Shenvi,  C. D. Sherrill,  
 A. C. Simmonett,  A. Sodt,  T. Stein,  D. Stuck,  K. S. Thanthiriwatte,  
 V. Vanovschi,  L. Vogt,  Tao Wang,  A. Warshel,  M. A. Watson,  
 C. F. Williams,  Q. Wu,  X. Xu,  Jun Yang,  W. Zhang,  Yan Zhao

   Please cite Q-Chem as follows:
  "Software for the frontiers of quantum chemistry:
   An overview of developments in the Q-Chem 5 package"
   J. Chem. Phys. 155, 084801 (2021)
   https://doi.org/10.1063/5.0055522 (open access)

 Q-Chem 6.1.0 for Intel X86 EM64T Linux

 Parts of Q-Chem use Armadillo 9.900.5 (Nocturnal Misbehaviour).
 http://arma.sourceforge.net/

 Q-Chem begins on Mon Jan 15 05:12:20 2024  

 Host: n0088.mhg0
0

     Scratch files written to /local/scratch/users/juanes/O-CCSD_FeCO3-D3h-S0.in20240115051213//
 Processing $rem in /global/home/groups-sw/mhg/qchem_public/qchem_6101/config/preferences:
 Processing $rem in /global/home/users/juanes/.qchemrc:

 Checking the input file for inconsistencies... 	...done.

--------------------------------------------------------------
User input:
--------------------------------------------------------------
$comment
  Plain old SCF on the ground state.
$end

$molecule
  0   1
  Fe
  C   1   rFeC
  C   1   rFeC  2  a_120
  C   1   rFeC  3  a_n120  2 d_0 
  O   1   rFeO  2  a_120   4 d_0
  O   1   rFeO  3  a_n120  4 d_0
  O   1   rFeO  4  a_120   3 d_0

  rFeC   =    1.86172
  rFeO   =    3.01220
  a_n120 = -120.00000
  a_120  =  120.00000
  d_0    =    0.00000
$end

$rem
  METHOD               HF
  UNRESTRICTED         FALSE
  BASIS                GEN
  PURECART             11
  SYMMETRY             FALSE
  SYM_IGNORE           TRUE
  GEN_SCFMAN           TRUE
  SCF_ALGORITHM        DIIS_GDM
  SCF_CONVERGENCE      8
  MAX_SCF_CYCLES       200
  INTERNAL_STABILITY   TRUE
  INTERNAL_STABILITY_ITER 10
  INTERNAL_STABILITY_DAVIDSON_ITER 250
  MEM_TOTAL            32000
  MEM_STATIC           1000
  THRESH               14
$end

$basis
C    0
cc-pVDZ
****
O    0
cc-pVDZ
****
Fe    0
cc-pVDZ
****
$end

--------------------------------------------------------------
 ----------------------------------------------------------------
             Standard Nuclear Orientation (Angstroms)
    I     Atom           X                Y                Z
 ----------------------------------------------------------------
    1      Fe      0.0000000000     0.0000000000     0.0000000000
    2      C       0.0000000000     0.0000000000     1.8617200000
    3      C       1.6122968147     0.0000000000    -0.9308600000
    4      C      -1.6122968147     0.0000000000    -0.9308600000
    5      O      -2.6086417213     0.0000000000    -1.5061000000
    6      O       0.0000000000     0.0000000000     3.0122000000
    7      O       2.6086417213     0.0000000000    -1.5061000000
 ----------------------------------------------------------------
 Nuclear Repulsion Energy =         381.85577843 hartrees
 There are       34 alpha and       34 beta electrons
 Requested basis set is non-standard
 There are 51 shells and 127 basis functions

 Total QAlloc Memory Limit  32000 MB
 Mega-Array Size       978 MB
 MEM_STATIC part      1000 MB


                       Distance Matrix (Angstroms)
             Fe(  1)   C (  2)   C (  3)   C (  4)   O (  5)   O (  6)
   C (  2)  1.861720
   C (  3)  1.861720  3.224594
   C (  4)  1.861720  3.224594  3.224594
   O (  5)  3.012200  4.259956  4.259956  1.150480
   O (  6)  3.012200  1.150480  4.259956  4.259956  5.217283
   O (  7)  3.012200  4.259956  1.150480  4.259956  5.217283  5.217283

 
 A cutoff of  1.0D-14 yielded   1239 shell pairs
 There are      7879 function pairs (      9475 Cartesian)
 Smallest overlap matrix eigenvalue = 5.31E-04

 Scale SEOQF with 1.000000e-01/1.000000e-01/1.000000e-01

 Standard Electronic Orientation quadrupole field applied
 Nucleus-field energy     =    -0.0000000100 hartrees
 ================ Generating on-the-fly SAD Guess ================
 Attempting to make child job directory: /local/scratch/users/juanes/O-CCSD_FeCO3-D3h-S0.in20240115051213//Frg1/
 Attempting to make child job directory: /local/scratch/users/juanes/O-CCSD_FeCO3-D3h-S0.in20240115051213//Frg2/
 Attempting to make child job directory: /local/scratch/users/juanes/O-CCSD_FeCO3-D3h-S0.in20240115051213//Frg3/
 Creating input file /local/scratch/users/juanes/O-CCSD_FeCO3-D3h-S0.in20240115051213/Frg1.input
 using default PutDataFrgm: nothing
 calling putenv with: QCSCRATCH=/local/scratch/users/juanes/O-CCSD_FeCO3-D3h-S0.in20240115051213/ 
 Spawning Job For Fragment 0
 Done Job For Fragment 0
 calling putenv with: QCSCRATCH=/local/scratch/users/juanes 
 calling putenv with: QCTHREADS=32 
 Creating input file /local/scratch/users/juanes/O-CCSD_FeCO3-D3h-S0.in20240115051213/Frg2.input
 using default PutDataFrgm: nothing
 calling putenv with: QCSCRATCH=/local/scratch/users/juanes/O-CCSD_FeCO3-D3h-S0.in20240115051213/ 
 Spawning Job For Fragment 1
 Done Job For Fragment 1
 calling putenv with: QCSCRATCH=/local/scratch/users/juanes 
 calling putenv with: QCTHREADS=32 
 Creating input file /local/scratch/users/juanes/O-CCSD_FeCO3-D3h-S0.in20240115051213/Frg3.input
 using default PutDataFrgm: nothing
 calling putenv with: QCSCRATCH=/local/scratch/users/juanes/O-CCSD_FeCO3-D3h-S0.in20240115051213/ 
 Spawning Job For Fragment 2
 Done Job For Fragment 2
 calling putenv with: QCSCRATCH=/local/scratch/users/juanes 
 calling putenv with: QCTHREADS=32 
 Time for running child jobs:  CPU 4.74 s  wall 522.95 s
 ============= Method Specific SAD Guess Constructed =============
 Guess from on-the-fly superposition of atomic densities
 Warning: Energy on first SCF cycle will be non-variational

 -----------------------------------------------------------------------
  General SCF calculation program by
  Eric Jon Sundstrom, Paul Horn, Yuezhi Mao, Dmitri Zuev, Alec White,
  David Stuck, Shaama M.S., Shane Yost, Joonho Lee, David Small,
  Daniel Levine, Susi Lehtola, Hugh Burton, Evgeny Epifanovsky,
  Bang C. Huynh
 -----------------------------------------------------------------------
 Hartree-Fock
Running Object-Oriented RKS (RHF)
 using 32 threads for integral computing
 -------------------------------------------------------
 OpenMP Integral computing Module                
 Release: version 1.0, May 2013, Q-Chem Inc. Pittsburgh 
 -------------------------------------------------------
Printing hybrid method specification in gen_scfman_hybrid_algorithm
algorithm ALGO_ID will be run until the gradient/residual is below 1E-ALGO_CONV
or ALGO_ITER iterations have been performed
----------------------------------------------
  ALGO_ID        ALGO_CONV         ALGO_ITER
----------------------------------------------
  DIIS                    2           50
  GDM                     8           200
----------------------------------------------
We will preform up to 10 macro iterations over saddle points until a stable solution is found
Energy prior to optimization (guess energy) = -1599.998140359290
Begin Timing: Total SCF Calculation
Begin Timing: SCF Single Stationary Point Calculation
Begin Timing: Algorithm 1
begin iterations for algorithm: DIIS         
the SCF tolerance is set to 1.00e-02
    1   -1599.9981403593      1.86e-02     00000 
    2   -1599.1355359267      3.42e-02     00000 
    3   -1600.4539074718      1.95e-03     Intermediate Algorithm Converged
successfully completed hybrid algorithm stage: 1
Timing for Algorithm DIIS          : 28.00s (wall), 340.68s (cpu)
Begin Timing: Algorithm 2
begin iterations for algorithm: GDM          
the SCF tolerance is set to 1.00e-08
    1   -1600.4539074718      3.42e-02     00000  Normal BFGS step
    2   -1600.4654602754      4.91e-02     00000  Normal BFGS step
    3   -1600.4721341656      3.36e-02     00000  Normal BFGS step
    4   -1600.4733298189      1.28e-02     00000  Normal BFGS step
    5   -1600.4756698749      3.18e-03     00000  Normal BFGS step
    6   -1600.4758991884      2.26e-03     00000  Normal BFGS step
    7   -1600.4759621243      3.76e-04     00000  Normal BFGS step
    8   -1600.4759637600      1.41e-04     00000  Normal BFGS step
    9   -1600.4759641246      6.87e-05     00000  Normal BFGS step
   10   -1600.4759641647      2.05e-05     00000  Normal BFGS step
   11   -1600.4759641726      3.69e-06     00000  Normal BFGS step
   12   -1600.4759641730      1.35e-06     00000  Normal BFGS step
   13   -1600.4759641730      2.51e-07     00000  Normal BFGS step
   14   -1600.4759641730      5.02e-08     00000  Normal BFGS step
   15   -1600.4759641730      3.92e-08     00000  Normal BFGS step
   16   -1600.4759641730      7.82e-08     00000  Normal BFGS step
   17   -1600.4759641730      2.23e-09     00000 Convergence criterion met
Timing for Algorithm GDM           : 258.00s (wall), 3214.33s (cpu)
Timing for Single Stationary Point: 286.00s (wall), 3555.02s (cpu)
Begin Timing: Stability
===================================================
Beginning Test for Internal Stability
===================================================
generating davidson guess vectors based on koopmans excitations
    1      1.83e+00     00000 Davidson Iteration
    2      1.48e+00     00000 Davidson Iteration
    3      2.53e-01     00000 Davidson Iteration
    4      1.45e-01     00000 Davidson Iteration
    5      4.43e-02     00000 Davidson Iteration
    6      4.36e-02     00000 Davidson Iteration
    7      3.51e-02     00000 Davidson Iteration
    8      1.01e-01     00000 Davidson Iteration
    9      4.75e-02     00000 Davidson Iteration
   10      1.37e-02     00000 Davidson Iteration
   11      9.19e-03     00000 Davidson Iteration
   12      5.14e-03     00000 Davidson Iteration
   13      4.32e-03     00000 Davidson Iteration
   14      4.24e-03     00000 Davidson Iteration
   15      4.49e-03     00000 Davidson Iteration
   16      3.74e-03     00000 Davidson Iteration
   17      4.04e-03     00000 Davidson Iteration
   18      3.72e-03     00000 Davidson Iteration
   19      1.43e-03     00000 Davidson Iteration
   20      1.00e-03     00000 Davidson Iteration
   21      4.03e-04     00000 Davidson Iteration
   22      2.41e-04     00000 Davidson Iteration
   23      4.64e-04     00000 Davidson Iteration
   24      4.40e-04     00000 Davidson Iteration
   25      3.34e-04     00000 Davidson Iteration
   26      1.35e-04     00000 Davidson Iteration
   27      1.11e-04     00000 Davidson Iteration
   28      5.18e-05     00000 Davidson Iteration
   29      4.23e-05     00000 Davidson Converged
converged_eigenvalues
   0.0787
   0.0787
Threshold for negative eigenvalues: -1.0e-05
solution was a local minimum (stable)
===================================================
End Test for Internal Stability
===================================================
Timing for Internal Stability: 864.00s (wall), 23177.70s (cpu)
Our SCF solution is stable!
Timing for Total SCF: 1150.00s (wall), 26732.89s (cpu)
 Total energy in the final basis set =    -1600.4759641730
    ==================================================
              The end of Object-Oriented SCFman       
    ==================================================
 
 --------------------------------------------------------------
 
                    Orbital Energies (a.u.)
 --------------------------------------------------------------
 
 Alpha MOs
 -- Occupied --
******** -31.8918 -27.3767 -27.3700 -27.3700 -20.6585 -20.6585 -20.6585
-11.3835 -11.3835 -11.3835  -4.0909  -2.6777  -2.6712  -2.6712  -1.5013
 -1.5012  -1.5012  -0.8095  -0.7990  -0.7990  -0.6640  -0.6370  -0.6370
 -0.6288  -0.6251  -0.6251  -0.6210  -0.6188  -0.6188  -0.4903  -0.4903
 -0.3135  -0.3135
 -- Virtual --
  0.0180   0.0603   0.1149   0.1149   0.1350   0.1448   0.1491   0.1491
  0.1658   0.1658   0.1683   0.3465   0.3467   0.3699   0.3699   0.3938
  0.3938   0.4263   0.4957   0.4957   0.5481   0.5875   0.5875   0.7603
  0.7603   0.7779   0.7817   0.8189   0.8524   0.8524   0.9029   0.9029
  0.9949   1.0002   1.0297   1.0297   1.2511   1.2511   1.2739   1.2739
  1.2929   1.3144   1.3145   1.3185   1.3185   1.3273   1.3612   1.3715
  1.3715   1.4102   1.4102   1.4430   1.4430   1.4583   1.4983   1.4983
  1.6122   1.6525   1.7229   1.7229   2.0227   2.0227   2.0778   2.0953
  2.0953   2.1336   2.3140   2.3140   2.8611   2.9421   2.9430   2.9430
  2.9450   2.9450   2.9561   3.0497   3.0497   3.2454   3.3038   3.3065
  3.3065   3.5419   3.5419   3.7208   3.7208   3.7353   3.7923   3.7923
  3.8404   3.9351   4.0834   4.0834   4.3978
 --------------------------------------------------------------
 
          Ground-State Mulliken Net Atomic Charges

     Atom                 Charge (a.u.)
  ----------------------------------------
      1 Fe                    0.109344
      2 C                     0.108793
      3 C                     0.108793
      4 C                     0.108793
      5 O                    -0.145241
      6 O                    -0.145241
      7 O                    -0.145241
  ----------------------------------------
  Sum of atomic charges =     0.000000

 -----------------------------------------------------------------
                    Cartesian Multipole Moments
 -----------------------------------------------------------------
    Charge (ESU x 10^10)
                -0.0000
    Dipole Moment (Debye)
         X       0.0000      Y       0.0000      Z       0.0000
       Tot       0.0000
    Quadrupole Moments (Debye-Ang)
        XX     -54.9216     XY      -0.0000     YY     -41.8153
        XZ       0.0000     YZ      -0.0000     ZZ     -54.9216
    Octopole Moments (Debye-Ang^2)
       XXX       0.0000    XXY      -0.0000    XYY       0.0000
       YYY       0.0000    XXZ      14.1695    XYZ      -0.0000
       YYZ       0.0000    XZZ       0.0000    YZZ       0.0000
       ZZZ     -14.1695
    Hexadecapole Moments (Debye-Ang^3)
      XXXX    -720.4575   XXXY      -0.0000   XXYY    -109.6672
      XYYY       0.0000   YYYY     -36.1022   XXXZ       0.0000
      XXYZ      -0.0000   XYYZ      -0.0000   YYYZ      -0.0000
      XXZZ    -240.1525   XYZZ       0.0000   YYZZ    -109.6672
      XZZZ       0.0000   YZZZ      -0.0000   ZZZZ    -720.4575
 -----------------------------------------------------------------
 Total job time:  1701.11s(wall), 27058.41s(cpu) 
 Mon Jan 15 05:40:41 2024

        *************************************************************
        *                                                           *
        *  Thank you very much for using Q-Chem.  Have a nice day.  *
        *                                                           *
        *************************************************************


 
User input: 2 of 2 
 
                  Welcome to Q-Chem
     A Quantum Leap Into The Future Of Chemistry


 Q-Chem 6.1 (devel), Q-Chem, Inc., Pleasanton, CA (2022)

 E. Epifanovsky,  A. T. B. Gilbert,  Xintian Feng,  Joonho Lee,  Yuezhi Mao,  
 N. Mardirossian,  P. Pokhilko,  A. White,  M. Wormit,  M. P. Coons,  
 A. L. Dempwolff,  Zhengting Gan,  D. Hait,  P. R. Horn,  L. D. Jacobson,  
 I. Kaliman,  J. Kussmann,  A. W. Lange,  Ka Un Lao,  D. S. Levine,  Jie Liu,  
 S. C. McKenzie,  A. F. Morrison,  K. D. Nanda,  F. Plasser,  D. R. Rehn,  
 M. L. Vidal,  Zhi-Qiang You,  Ying Zhu,  B. Alam,  B. Albrecht,  
 A. Aldossary,  E. Alguire,  J. H. Andersen,  V. Athavale,  D. Barton,  
 K. Begam,  A. Behn,  N. Bellonzi,  Y. A. Bernard,  E. J. Berquist,  
 H. Burton,  A. Carreras,  K. Carter-Fenk,  Mathew Chow,  Romit Chakraborty,  
 Chandrima Chakravarty,  Junhan Chen,  A. D. Chien,  K. D. Closser,  
 V. Cofer-Shabica,  L. Cunha,  S. Dasgupta,  Jia Deng,  M. de Wergifosse,  
 M. Diedenhofen,  Hainam Do,  S. Ehlert,  Po-Tung Fang,  S. Fatehi,  
 Qingguo Feng,  T. Friedhoff,  Thomas Froitzheim,  B. Ganoe,  J. Gayvert,  
 Qinghui Ge,  G. Gidofalvi,  M. Gimferrer,  M. Goldey,  Montgomery Gray,  
 J. Gomes,  C. Gonzalez-Espinoza,  S. Gulania,  A. Gunina,  J. A. Gyamfi,  
 M. W. D. Hanson-Heine,  P. H. P. Harbach,  A. W. Hauser,  M. F. Herbst,  
 M. Hernandez Vera,  M. Hodecker,  Z. C. Holden,  S. Houck,  Xunkun Huang,  
 Kerwin Hui,  B. C. Huynh,  K. Ikeda,  M. Ivanov,  Hyunjun Ji,  Zuxin Jin,  
 Hanjie Jiang,  Subrata Jana,  B. Kaduk,  S. Kaehler,  R. Kang,  
 K. Khistyaev,  Jaehoon Kim,  Yongbin Kim,  P. Klunzinger,  Z. Koczor-Benda,  
 Joong Hoon Koh,  D. Kosenkov,  Saikiran Kotaru,  L. Koulias,  T. Kowalczyk,  
 C. M. Krauter,  K. Kue,  A. Kunitsa,  T. Kus,  A. Landau,  K. V. Lawler,  
 D. Lefrancois,  S. Lehtola,  Rain Li,  Shaozhi Li,  Yi-Pei Li,  
 Jiashu Liang,  M. Liebenthal,  Hung-Hsuan Lin,  You-Sheng Lin,  Fenglai Liu,  
 Kuan-Yu Liu,  Xiao Liu,  M. Loipersberger,  A. Luenser,  C. Malbon,  
 A. Manjanath,  P. Manohar,  E. Mansoor,  S. F. Manzer,  Shan-Ping Mao,  
 A. V. Marenich,  T. Markovich,  S. Mason,  F. Matz,  S. A. Maurer,  
 P. F. McLaughlin,  M. F. S. J. Menger,  J.-M. Mewes,  S. A. Mewes,  
 P. Morgante,  Mohammad Mostafanejad,  J. W. Mullinax,  K. J. Oosterbaan,  
 G. Paran,  V. Parravicini,  Alexander C. Paul,  Suranjan K. Paul,  
 F. Pavosevic,  Zheng Pei,  S. Prager,  E. I. Proynov,  E. Ramos,  B. Rana,  
 A. E. Rask,  A. Rettig,  R. M. Richard,  F. Rob,  E. Rossomme,  T. Scheele,  
 M. Scheurer,  M. Schneider,  P. E. Schneider,  Tim K. Schramm,  N. Sergueev,  
 S. M. Sharada,  M. Sharma,  Hengyuan Shen,  W. Skomorowski,  D. W. Small,  
 C. J. Stein,  Alistair J. Sterling,  Yingli Su,  Yu-Chuan Su,  
 E. J. Sundstrom,  J. Talbot,  Zhen Tao,  J. Thirman,  Hung-Yi Tsai,  
 T. Tsuchimochi,  N. M. Tubman,  C. Utku,  S. P. Veccham,  O. Vydrov,  
 J. Wenzel,  Jonathan Wong,  J. Witte,  A. Yamada,  Chou-Hsun Yang,  Kun Yao,  
 S. Yeganeh,  S. R. Yost,  A. Zech,  F. Zeller,  Igor Ying Zhang,  
 Xing Zhang,  Yu Zhang,  D. Zuev,  A. Aspuru-Guzik,  A. T. Bell,  
 N. A. Besley,  K. B. Bravaya,  B. R. Brooks,  D. Casanova,  Jeng-Da Chai,  
 Hsing-Ta Chen,  S. Coriani,  C. J. Cramer,  A. E. DePrince, III,  
 R. A. DiStasio Jr.,  A. Dreuw,  B. D. Dunietz,  T. R. Furlani,  
 W. A. Goddard III,  S. Grimme,  S. Hammes-Schiffer,  T. Head-Gordon,  
 W. J. Hehre,  Chao-Ping Hsu,  T.-C. Jagau,  Yousung Jung,  A. Klamt,  
 Jing Kong,  D. S. Lambrecht,  Xiangyuan Li,  WanZhen Liang,  N. J. Mayhall,  
 C. W. McCurdy,  J. B. Neaton,  T. Neudecker,  C. Ochsenfeld,  
 J. A. Parkhill,  R. Peverati,  V. A. Rassolov,  Haisheng Ren,  Yihan Shao,  
 L. V. Slipchenko,  R. P. Steele,  J. E. Subotnik,  A. J. W. Thom,  
 A. Tkatchenko,  D. G. Truhlar,  T. Van Voorhis,  Fan Wang,  
 T. A. Wesolowski,  K. B. Whaley,  H. L. Woodcock III,  P. M. Zimmerman,  
 S. Faraji,  P. M. W. Gill,  M. Head-Gordon,  J. M. Herbert,  A. I. Krylov

 Contributors to earlier versions of Q-Chem not listed above: 
 R. D. Adamson,  B. Austin,  R. Baer,  J. Baker,  G. J. O. Beran,  
 K. Brandhorst,  S. T. Brown,  E. F. C. Byrd,  Arup K. Chakraborty,  
 G. K. L. Chan,  Chun-Min Chang,  Yunqing Chen,  C.-L. Cheng,  
 Siu Hung Chien,  D. M. Chipman,  D. L. Crittenden,  H. Dachsel,  
 R. J. Doerksen,  A. D. Dutoi,  R. G. Edgar,  J. Fosso-Tande,  
 L. Fusti-Molnar,  D. Ghosh,  A. Ghysels,  A. Golubeva-Zadorozhnaya,  
 J. Gonthier,  M. S. Gordon,  S. R. Gwaltney,  G. Hawkins,  J. E. Herr,  
 A. Heyden,  S. Hirata,  E. G. Hohenstein,  G. Kedziora,  F. J. Keil,  
 C. Kelley,  Jihan Kim,  R. A. King,  R. Z. Khaliullin,  P. P. Korambath,  
 W. Kurlancheek,  A. Laurent,  A. M. Lee,  M. S. Lee,  S. V. Levchenko,  
 Ching Yeh Lin,  D. Liotard,  E. Livshits,  R. C. Lochan,  I. Lotan,  
 L. A. Martinez-Martinez,  P. E. Maslen,  N. Nair,  D. P. O'Neill,  
 D. Neuhauser,  E. Neuscamman,  C. M. Oana,  R. Olivares-Amaya,  R. Olson,  
 T. M. Perrine,  B. Peters,  P. A. Pieniazek,  A. Prociuk,  Y. M. Rhee,  
 J. Ritchie,  M. A. Rohrdanz,  E. Rosta,  N. J. Russ,  H. F. Schaefer III,  
 M. W. Schmidt,  N. E. Schultz,  S. Sharma,  N. Shenvi,  C. D. Sherrill,  
 A. C. Simmonett,  A. Sodt,  T. Stein,  D. Stuck,  K. S. Thanthiriwatte,  
 V. Vanovschi,  L. Vogt,  Tao Wang,  A. Warshel,  M. A. Watson,  
 C. F. Williams,  Q. Wu,  X. Xu,  Jun Yang,  W. Zhang,  Yan Zhao

   Please cite Q-Chem as follows:
  "Software for the frontiers of quantum chemistry:
   An overview of developments in the Q-Chem 5 package"
   J. Chem. Phys. 155, 084801 (2021)
   https://doi.org/10.1063/5.0055522 (open access)

 Q-Chem 6.1.0 for Intel X86 EM64T Linux

 Parts of Q-Chem use Armadillo 9.900.5 (Nocturnal Misbehaviour).
 http://arma.sourceforge.net/

 Q-Chem begins on Mon Jan 15 05:40:41 2024  

 Host: n0088.mhg0
0

     Scratch files written to /local/scratch/users/juanes/O-CCSD_FeCO3-D3h-S0.in20240115051213//
 Processing $rem in /global/home/groups-sw/mhg/qchem_public/qchem_6101/config/preferences:
 Processing $rem in /global/home/users/juanes/.qchemrc:
 Core orbitals will be frozen

 Checking the input file for inconsistencies... 	...done.

--------------------------------------------------------------
User input:
--------------------------------------------------------------

$comment
  Optimization of the CCSD structure.
$end

$molecule
  read
$end

$rem
  JOBTYPE              OPT
  METHOD               CCSD
  UNRESTRICTED         FALSE
  BASIS                GEN
  PURECART             11
  SYMMETRY             FALSE
  SYM_IGNORE           TRUE
  GEN_SCFMAN           TRUE
  SCF_GUESS            READ
  SCF_ALGORITHM        GDM
  SCF_CONVERGENCE      7
  MAX_SCF_CYCLES       200
  CC_BACKEND           XM
  CC_MAX_ITER          200
  MEM_TOTAL            32000
  MEM_STATIC           1000
  THRESH               14
$end

$opt
  FIXED
  1 XYZ
  ENDFIXED
$end

$basis
C    0
cc-pVDZ
****
O    0
cc-pVDZ
****
Fe    0
cc-pVDZ
****
$end

--------------------------------------------------------------
 ----------------------------------------------------------------
             Standard Nuclear Orientation (Angstroms)
    I     Atom           X                Y                Z
 ----------------------------------------------------------------
    1      Fe      0.0000000000     0.0000000000     0.0000000000
    2      C       0.0000000000     0.0000000000     1.8617200000
    3      C       1.6122968147     0.0000000000    -0.9308600000
    4      C      -1.6122968147     0.0000000000    -0.9308600000
    5      O      -2.6086417213     0.0000000000    -1.5061000000
    6      O       0.0000000000     0.0000000000     3.0122000000
    7      O       2.6086417213     0.0000000000    -1.5061000000
 ----------------------------------------------------------------
 Nuclear Repulsion Energy =         381.85577843 hartrees
 There are       34 alpha and       34 beta electrons
 Requested basis set is non-standard
 There are 51 shells and 127 basis functions
 Total memory of 32000 MB is distributed as follows: 
   MEM_STATIC is set to 1000 MB
   QALLOC/CCMAN JOB total memory use is  31000 MB
 Warning: actual memory use might exceed 32000 MB

 Total QAlloc Memory Limit  32000 MB
 Mega-Array Size       978 MB
 MEM_STATIC part      1000 MB

 A cutoff of  1.0D-14 yielded   1239 shell pairs
 There are      7879 function pairs (      9475 Cartesian)
 Smallest overlap matrix eigenvalue = 5.31E-04

 Scale SEOQF with 1.000000e-01/1.000000e-01/1.000000e-01

 Standard Electronic Orientation quadrupole field applied
 Nucleus-field energy     =    -0.0000000100 hartrees
 Guess MOs from SCF MO coefficient file

 -----------------------------------------------------------------------
  General SCF calculation program by
  Eric Jon Sundstrom, Paul Horn, Yuezhi Mao, Dmitri Zuev, Alec White,
  David Stuck, Shaama M.S., Shane Yost, Joonho Lee, David Small,
  Daniel Levine, Susi Lehtola, Hugh Burton, Evgeny Epifanovsky,
  Bang C. Huynh
 -----------------------------------------------------------------------
 Hartree-Fock
 using 32 threads for integral computing
 -------------------------------------------------------
 OpenMP Integral computing Module                
 Release: version 1.0, May 2013, Q-Chem Inc. Pittsburgh 
 -------------------------------------------------------
 A restricted SCF calculation will be
 performed using GDM
 SCF converges when RMS gradient is below 1.0e-07
 ---------------------------------------
  Cycle       Energy        RMS Gradient
 ---------------------------------------
    1   -1600.4759641730      8.54e-10  Convergence criterion met
 ---------------------------------------
 SCF time:   CPU 327.57s  wall 27.00s 
 SCF   energy in the final basis set =    -1600.4759641730
 Total energy in the final basis set =    -1600.4759641730


 ------------------------------------------------------------------------------

   CCMAN2: suite of methods based on coupled cluster
           and equation of motion theories.

   Components:
   * libvmm-1.3-trunk
     by Evgeny Epifanovsky, Ilya Kaliman.
   * libtensor-2.5-trunk
     by Evgeny Epifanovsky, Michael Wormit, Dmitry Zuev, Sam Manzer, 
        Ilya Kaliman.
   * libcc-2.5-trunk
     by Evgeny Epifanovsky, Arik Landau, Tomasz Kus, Kirill Khistyaev, 
        Dmitry Zuev, Prashant Manohar, Xintian Feng, Anna Krylov, 
        Matthew Goldey, Alec White, Thomas Jagau, Kaushik Nanda, 
        Anastasia Gunina, Alexander Kunitsa, Joonho Lee.

   CCMAN original authors:
   Anna I. Krylov, C. David Sherrill, Steven R. Gwaltney,
   Edward F. C. Byrd (2000)
   Sergey V. Levchenko, Lyudmila V. Slipchenko, Tao Wang,
   Ana-Maria C. Cristian (2003)
   Piotr A. Pieniazek, C. Melania Oana, Evgeny Epifanovsky (2007)
   Prashant Manohar (2009)

 ------------------------------------------------------------------------------


 Calculation will run on 32 cores using libxm for tensor contractions

 ------------------------------------------------------------------------------
Libxm Tensor Library
Copyright (c) 2014-2018 Ilya Kaliman
https://github.com/ilyak/libxm
Reference: https://dx.doi.org/10.1002/jcc.24713
 ------------------------------------------------------------------------------

 
 Alpha MOs, Restricted
 -- Occupied --                  
-261.33  -31.89  -27.38  -27.37  -27.37  -20.66  -20.66  -20.66
  1 A     2 A     3 A     4 A     5 A     6 A     7 A     8 A                  
-11.383 -11.383 -11.383  -4.091  -2.678  -2.671  -2.671  -1.501
  9 A    10 A    11 A    12 A    13 A    14 A    15 A    16 A                  
 -1.501  -1.501  -0.810  -0.799  -0.799  -0.664  -0.637  -0.637
 17 A    18 A    19 A    20 A    21 A    22 A    23 A    24 A                  
 -0.629  -0.625  -0.625  -0.621  -0.619  -0.619  -0.490  -0.490
 25 A    26 A    27 A    28 A    29 A    30 A    31 A    32 A                  
 -0.314  -0.314
 33 A    34 A                                                                  
 -- Virtual --                   
  0.018   0.060   0.115   0.115   0.135   0.145   0.149   0.149
 35 A    36 A    37 A    38 A    39 A    40 A    41 A    42 A                  
  0.166   0.166   0.168   0.347   0.347   0.370   0.370   0.394
 43 A    44 A    45 A    46 A    47 A    48 A    49 A    50 A                  
  0.394   0.426   0.496   0.496   0.548   0.587   0.587   0.760
 51 A    52 A    53 A    54 A    55 A    56 A    57 A    58 A                  
  0.760   0.778   0.782   0.819   0.852   0.852   0.903   0.903
 59 A    60 A    61 A    62 A    63 A    64 A    65 A    66 A                  
  0.995   1.000   1.030   1.030   1.251   1.251   1.274   1.274
 67 A    68 A    69 A    70 A    71 A    72 A    73 A    74 A                  
  1.293   1.314   1.314   1.319   1.319   1.327   1.361   1.372
 75 A    76 A    77 A    78 A    79 A    80 A    81 A    82 A                  
  1.372   1.410   1.410   1.443   1.443   1.458   1.498   1.498
 83 A    84 A    85 A    86 A    87 A    88 A    89 A    90 A                  
  1.612   1.653   1.723   1.723   2.023   2.023   2.078   2.095
 91 A    92 A    93 A    94 A    95 A    96 A    97 A    98 A                  
  2.095   2.134   2.314   2.314   2.861   2.942   2.943   2.943
 99 A   100 A   101 A   102 A   103 A   104 A   105 A   106 A                  
  2.945   2.945   2.956   3.050   3.050   3.245   3.304   3.306
107 A   108 A   109 A   110 A   111 A   112 A   113 A   114 A                  
  3.306   3.542   3.542   3.721   3.721   3.735   3.792   3.792
115 A   116 A   117 A   118 A   119 A   120 A   121 A   122 A                  
  3.840   3.935   4.083   4.083   4.398
123 A   124 A   125 A   126 A   127 A                                          
 
 Beta MOs, Restricted
 -- Occupied --                  
-261.33  -31.89  -27.38  -27.37  -27.37  -20.66  -20.66  -20.66
  1 A     2 A     3 A     4 A     5 A     6 A     7 A     8 A                  
-11.383 -11.383 -11.383  -4.091  -2.678  -2.671  -2.671  -1.501
  9 A    10 A    11 A    12 A    13 A    14 A    15 A    16 A                  
 -1.501  -1.501  -0.810  -0.799  -0.799  -0.664  -0.637  -0.637
 17 A    18 A    19 A    20 A    21 A    22 A    23 A    24 A                  
 -0.629  -0.625  -0.625  -0.621  -0.619  -0.619  -0.490  -0.490
 25 A    26 A    27 A    28 A    29 A    30 A    31 A    32 A                  
 -0.314  -0.314
 33 A    34 A                                                                  
 -- Virtual --                   
  0.018   0.060   0.115   0.115   0.135   0.145   0.149   0.149
 35 A    36 A    37 A    38 A    39 A    40 A    41 A    42 A                  
  0.166   0.166   0.168   0.347   0.347   0.370   0.370   0.394
 43 A    44 A    45 A    46 A    47 A    48 A    49 A    50 A                  
  0.394   0.426   0.496   0.496   0.548   0.587   0.587   0.760
 51 A    52 A    53 A    54 A    55 A    56 A    57 A    58 A                  
  0.760   0.778   0.782   0.819   0.852   0.852   0.903   0.903
 59 A    60 A    61 A    62 A    63 A    64 A    65 A    66 A                  
  0.995   1.000   1.030   1.030   1.251   1.251   1.274   1.274
 67 A    68 A    69 A    70 A    71 A    72 A    73 A    74 A                  
  1.293   1.314   1.314   1.319   1.319   1.327   1.361   1.372
 75 A    76 A    77 A    78 A    79 A    80 A    81 A    82 A                  
  1.372   1.410   1.410   1.443   1.443   1.458   1.498   1.498
 83 A    84 A    85 A    86 A    87 A    88 A    89 A    90 A                  
  1.612   1.653   1.723   1.723   2.023   2.023   2.078   2.095
 91 A    92 A    93 A    94 A    95 A    96 A    97 A    98 A                  
  2.095   2.134   2.314   2.314   2.861   2.942   2.943   2.943
 99 A   100 A   101 A   102 A   103 A   104 A   105 A   106 A                  
  2.945   2.945   2.956   3.050   3.050   3.245   3.304   3.306
107 A   108 A   109 A   110 A   111 A   112 A   113 A   114 A                  
  3.306   3.542   3.542   3.721   3.721   3.735   3.792   3.792
115 A   116 A   117 A   118 A   119 A   120 A   121 A   122 A                  
  3.840   3.935   4.083   4.083   4.398
123 A   124 A   125 A   126 A   127 A                                          

 Occupation and symmetry of molecular orbitals

 Point group: C1 (1 irreducible representation).

                           A     All 
 -------------------------------------
 All molecular orbitals:
  - Alpha                  127   127 
  - Beta                   127   127 
 -------------------------------------
 Alpha orbitals:
  - Frozen occupied        15    15  
  - Active occupied        19    19  
  - Active virtual         93    93  
  - Frozen virtual         0     0   
 -------------------------------------
 Beta orbitals:
  - Frozen occupied        15    15  
  - Active occupied        19    19  
  - Active virtual         93    93  
  - Frozen virtual         0     0   
 -------------------------------------

 Import integrals:   CPU 0.01 s  wall 0.00 s

 Import integrals:   CPU 235.71 s  wall 14.72 s

 MP2 amplitudes:   CPU 6.34 s  wall 0.64 s

Running a double precision version
           CCSD T amplitudes will be solved using DIIS.

           Start     Size      MaxIter   EConv     TConv     
           3         7         200       1.00e-07  1.00e-05  
 ------------------------------------------------------------------------------
           Energy (a.u.)   Ediff      Tdiff       Comment
 ------------------------------------------------------------------------------
         -1601.82948021                           
     1   -1601.59861286   2.31e-01   7.92e-01     
     2   -1601.78890079   1.90e-01   1.11e-01     
     3   -1601.66511129   1.24e-01   5.16e-02     
     4   -1601.72351593   5.84e-02   4.50e-01     Switched to DIIS steps.
     5   -1601.73000193   6.49e-03   1.71e-02     
     6   -1601.73395208   3.95e-03   1.06e-02     
     7   -1601.73307686   8.75e-04   9.62e-03     
     8   -1601.73329435   2.17e-04   3.27e-03     
     9   -1601.73399406   7.00e-04   3.37e-03     
    10   -1601.73399503   9.73e-07   1.28e-03     
    11   -1601.73396686   2.82e-05   9.34e-04     
    12   -1601.73407923   1.12e-04   9.95e-04     
    13   -1601.73409082   1.16e-05   4.33e-04     
    14   -1601.73406833   2.25e-05   2.31e-04     
    15   -1601.73408018   1.19e-05   1.79e-04     
    16   -1601.73407619   3.99e-06   8.48e-05     
    17   -1601.73407554   6.46e-07   3.05e-05     
    18   -1601.73407464   8.98e-07   2.43e-05     
    19   -1601.73407253   2.11e-06   1.35e-05     
    20   -1601.73407205   4.82e-07   6.88e-06     
    21   -1601.73407102   1.03e-06   5.29e-06     
    22   -1601.73407096   6.37e-08   4.04e-06     
 ------------------------------------------------------------------------------
         -1601.73407096                           CCSD T converged.

End of double precision
 SCF energy                 = -1600.47596417
 MP2 energy                 = -1601.82948021
 CCSD correlation energy    =    -1.25810678
 CCSD total energy          = -1601.73407096

 CCSD  T1^2 = 0.0891  T2^2 = 0.4619  Leading amplitudes:

 Amplitude    Orbitals with energies
 -0.0990       31 (A) A                  ->    41 (A) A                   
              -0.4903                          0.1491                     
 -0.0990       31 (A) B                  ->    41 (A) B                   
              -0.4903                          0.1491                     
 -0.0990       32 (A) A                  ->    42 (A) A                   
              -0.4903                          0.1491                     
 -0.0990       32 (A) B                  ->    42 (A) B                   
              -0.4903                          0.1491                     

 Amplitude    Orbitals with energies
 -0.0730       33 (A) A      33 (A) B    ->    43 (A) A      43 (A) B     
              -0.3135       -0.3135            0.1658        0.1658       
  0.0730       33 (A) A      33 (A) B    ->    43 (A) B      43 (A) A     
              -0.3135       -0.3135            0.1658        0.1658       
  0.0730       33 (A) B      33 (A) A    ->    43 (A) A      43 (A) B     
              -0.3135       -0.3135            0.1658        0.1658       
 -0.0730       33 (A) B      33 (A) A    ->    43 (A) B      43 (A) A     
              -0.3135       -0.3135            0.1658        0.1658       
 -0.0730       34 (A) A      34 (A) B    ->    44 (A) A      44 (A) B     
              -0.3135       -0.3135            0.1658        0.1658       
  0.0730       34 (A) A      34 (A) B    ->    44 (A) B      44 (A) A     
              -0.3135       -0.3135            0.1658        0.1658       
  0.0730       34 (A) B      34 (A) A    ->    44 (A) A      44 (A) B     
              -0.3135       -0.3135            0.1658        0.1658       
 -0.0730       34 (A) B      34 (A) A    ->    44 (A) B      44 (A) A     
              -0.3135       -0.3135            0.1658        0.1658       

 Computing CCSD intermediates for later calculations in double precision
 Finished.

Running a double precision version
           CCSD Lambda amplitudes will be solved using DIIS.
           Start     Size      MaxIter   EConv     LConv     
           3         7         200       1.00e-07  1.00e-05  
 ------------------------------------------------------------------------------
            Enorm      Ldiff       Comment
 ------------------------------------------------------------------------------
     1     1.72e-01   5.77e-02     
     2     1.30e-01   4.40e-02     
     3     1.27e-01   3.10e-02     
     4     1.67e-02   2.42e-02     Switched to DIIS steps.
     5     9.53e-03   1.80e-03     
     6     3.44e-03   2.72e-03     
     7     2.24e-03   6.91e-04     
     8     1.09e-03   5.92e-04     
     9     6.81e-04   2.62e-04     
    10     4.38e-04   1.58e-04     
    11     2.53e-04   1.42e-04     
    12     1.68e-04   6.09e-05     
    13     1.07e-04   6.33e-05     
    14     7.38e-05   2.55e-05     
    15     4.86e-05   1.70e-05     
    16     2.73e-05   1.22e-05     
    17     1.50e-05   2.51e-06     
    18     8.03e-06   2.43e-06     
    19     4.70e-06   7.02e-07     
    20     2.87e-06   2.90e-07     
    21     1.83e-06   2.00e-07     
    22     1.24e-06   2.31e-07     
    23     8.50e-07   2.96e-07     
    24     6.41e-07   2.11e-07     
    25     4.88e-07   2.12e-07     
    26     2.91e-07   1.54e-07     
    27     1.72e-07   9.26e-08     
    28     1.05e-07   3.27e-08     
    29     6.04e-08   2.59e-08     
 ------------------------------------------------------------------------------
                                   CCSD Lambda converged.

 Computing density matrices in double precision...
           Orbital response amplitudes will be solved using DIIS.
           Start     Size      MaxIter   EConv     LConv     
           3         7         200       1.00e-06  1.00e-06  
 ------------------------------------------------------------------------------
            Enorm      Ldiff       Comment
 ------------------------------------------------------------------------------
     1     3.75e-01   2.10e-01     
     2     1.37e+00   7.58e-01     
     3     5.58e+00   3.44e+00     
     4     1.44e-01   4.38e+00     Switched to DIIS steps.
     5     2.06e-02   5.24e-02     
     6     8.47e-03   2.25e-03     
     7     8.64e-04   2.01e-03     
     8     1.51e-04   2.57e-04     
     9     3.61e-05   9.27e-06     
    10     1.71e-05   4.94e-06     
    11     1.12e-05   3.16e-06     
    12     1.03e-06   2.05e-06     
    13     1.02e-06   1.65e-07     
    14     2.70e-07   2.78e-07     
 ------------------------------------------------------------------------------
                                   Orbital response converged.

 Computing density matrices... Done.
 CCSD calculation:   CPU 9691.85 s  wall 520.35 s

 Transferring MO TPDM to AO TPDM
 Transferring g2_o1o1o1o1
 Transferring g2_o1o1o1v1
 Transferring g2_o1o1v1v1
 Transferring g2_o1v1o1v1
 Transferring g2_o1v1v1v1
 Transferring g2_v1v1v1v1
 Adding separable TPDM
 Computing TPDM gradient
 --------------------------------------------------------
 2e gradient
  Atom          X               Y               Z
 --------------------------------------------------------
    1          0.000012       -0.000000        0.000000  
    2         -0.000003        0.000000        3.160762  
    3          2.737295       -0.000000       -1.580380  
    4         -2.737305       -0.000000       -1.580382  
    5         25.100349        0.000000       14.491694  
    6         -0.000000       -0.000000      -28.983385  
    7        -25.100346        0.000000       14.491691  
 --------------------------------------------------------
 --------------------------------------------------------
 Final gradient
  Atom          X               Y               Z
 --------------------------------------------------------
    1          0.000012       -0.000000        0.000000  
    2         -0.000003        0.000000        3.160762  
    3          2.737295       -0.000000       -1.580380  
    4         -2.737305       -0.000000       -1.580382  
    5         25.100349        0.000000       14.491694  
    6         -0.000000       -0.000000      -28.983385  
    7        -25.100346        0.000000       14.491691  
 --------------------------------------------------------
 Analytic gradient from two-electron contribution:   CPU 1823.96 s  wall 92.95 s

 Total ccman2 time:   CPU 11869.15 s  wall 632.24 s

 
 --------------------------------------------------------------
 
                    Orbital Energies (a.u.)
 --------------------------------------------------------------
 
 Alpha MOs
 -- Occupied --
******** -31.8918 -27.3767 -27.3700 -27.3700 -20.6585 -20.6585 -20.6585
-11.3835 -11.3835 -11.3835  -4.0909  -2.6777  -2.6712  -2.6712  -1.5013
 -1.5012  -1.5012  -0.8095  -0.7990  -0.7990  -0.6640  -0.6370  -0.6370
 -0.6288  -0.6251  -0.6251  -0.6210  -0.6188  -0.6188  -0.4903  -0.4903
 -0.3135  -0.3135
 -- Virtual --
  0.0180   0.0603   0.1149   0.1149   0.1350   0.1448   0.1491   0.1491
  0.1658   0.1658   0.1683   0.3465   0.3467   0.3699   0.3699   0.3938
  0.3938   0.4263   0.4957   0.4957   0.5481   0.5875   0.5875   0.7603
  0.7603   0.7779   0.7817   0.8189   0.8524   0.8524   0.9029   0.9029
  0.9949   1.0002   1.0297   1.0297   1.2511   1.2511   1.2739   1.2739
  1.2929   1.3144   1.3145   1.3185   1.3185   1.3273   1.3612   1.3715
  1.3715   1.4102   1.4102   1.4430   1.4430   1.4583   1.4983   1.4983
  1.6122   1.6525   1.7229   1.7229   2.0227   2.0227   2.0778   2.0953
  2.0953   2.1336   2.3140   2.3140   2.8611   2.9421   2.9430   2.9430
  2.9450   2.9450   2.9561   3.0497   3.0497   3.2454   3.3038   3.3065
  3.3065   3.5419   3.5419   3.7208   3.7208   3.7353   3.7923   3.7923
  3.8404   3.9351   4.0834   4.0834   4.3978
 --------------------------------------------------------------
 
          Ground-State Mulliken Net Atomic Charges

     Atom                 Charge (a.u.)
  ----------------------------------------
      1 Fe                   -0.004332
      2 C                     0.030352
      3 C                     0.030352
      4 C                     0.030351
      5 O                    -0.028908
      6 O                    -0.028908
      7 O                    -0.028908
  ----------------------------------------
  Sum of atomic charges =     0.000000

 -----------------------------------------------------------------
                    Cartesian Multipole Moments
 -----------------------------------------------------------------
    Charge (ESU x 10^10)
                -0.0000
    Dipole Moment (Debye)
         X      -0.0000      Y      -0.0000      Z      -0.0000
       Tot       0.0000
    Quadrupole Moments (Debye-Ang)
        XX     -52.3983     XY       0.0000     YY     -42.8047
        XZ      -0.0000     YZ      -0.0000     ZZ     -52.3983
    Octopole Moments (Debye-Ang^2)
       XXX      -0.0000    XXY      -0.0000    XYY      -0.0000
       YYY      -0.0000    XXZ       8.4280    XYZ       0.0000
       YYZ      -0.0000    XZZ      -0.0000    YZZ       0.0000
       ZZZ      -8.4280
    Hexadecapole Moments (Debye-Ang^3)
      XXXX    -690.4064   XXXY       0.0000   XXYY    -110.0598
      XYYY       0.0000   YYYY     -39.7385   XXXZ      -0.0000
      XXYZ      -0.0000   XYYZ      -0.0000   YYYZ      -0.0000
      XXZZ    -230.1355   XYZZ       0.0000   YYZZ    -110.0598
      XZZZ      -0.0000   YZZZ      -0.0000   ZZZZ    -690.4064
 -----------------------------------------------------------------
 DrvMan completing analytic gradient of the correlated energy
 Correlated dipole moment
            1
    1  -0.0000020
    2  -0.0000000
    3  -0.0000000
 Energy read as -1601.734070955
 Full Analytical Gradient: (in a.u., or Hartree/Bohr)
             1             2             3             4             5
    1   -0.00000027    0.00000001    0.00000912   -0.00000873    0.00000681
    2    0.00000000   -0.00000000    0.00000000    0.00000000   -0.00000000
    3   -0.00000000    0.00001031   -0.00000526   -0.00000504    0.00000391
             6             7
    1    0.00000003   -0.00000696
    2    0.00000000    0.00000000
    3   -0.00000795    0.00000404
 Gradient time:  CPU 18.62 s  wall 11.21 s
 Geometry Optimization Parameters
   NAtoms,    NIC,     NZ,  NCons,   NDum,   NFix, NCnnct, MaxDiis
        7      32       0       0       0       1       0       0
**WARNING** Cannot use Internal Coordinates with Fixed Atoms
  Cartesian Optimization Enforced


** GEOMETRY OPTIMIZATION IN CARTESIAN COORDINATES **
   Searching for a Minimum

   Optimization Cycle:   1

                       Coordinates (Angstroms)
     ATOM                X               Y               Z
      1  Fe        0.0000000000    0.0000000000    0.0000000000
      2  C         0.0000000000    0.0000000000    1.8617200000
      3  C         1.6122968147    0.0000000000   -0.9308600000
      4  C        -1.6122968147    0.0000000000   -0.9308600000
      5  O        -2.6086417213    0.0000000000   -1.5061000000
      6  O         0.0000000000    0.0000000000    3.0122000000
      7  O         2.6086417213    0.0000000000   -1.5061000000
   Point Group: c1    Number of degrees of freedom:    15


   Energy is  -1601.734070955

            Atoms with "Fixed" Coordinates
                Atom    Coordinates
                     1        X  Y  Z

 11 Hessian modes will be used to form the next step
  Hessian Eigenvalues:
     1.000000    1.000000    1.000000    1.000000    1.000000    1.000000
     1.000000    1.000000    1.000000    1.000000    1.000000

 Minimum search - taking simple RFO step
 Searching for Lamda that Minimizes Along All modes
 Value Taken    Lamda =  -0.00000000
 Step Taken.  Stepsize is  0.000023

                             Maximum     Tolerance    Cnvgd?
         Gradient           0.000010      0.000300     YES
         Displacement       0.000010      0.001200     YES
         Energy change     *********      0.000001      NO


                       Distance Matrix (Angstroms)
             Fe(  1)   C (  2)   C (  3)   C (  4)   O (  5)   O (  6)
   C (  2)  1.861720
   C (  3)  1.861720  3.224594
   C (  4)  1.861720  3.224594  3.224594
   O (  5)  3.012200  4.259956  4.259956  1.150480
   O (  6)  3.012200  1.150480  4.259956  4.259956  5.217283
   O (  7)  3.012200  4.259956  1.150480  4.259956  5.217283  5.217283

 
 Final energy is   -1601.73407095524     


 ******************************
 **  OPTIMIZATION CONVERGED  **
 ******************************

                       Coordinates (Angstroms)
     ATOM                X               Y               Z
      1  Fe        0.0000000000    0.0000000000    0.0000000000
      2  C         0.0000000000    0.0000000000    1.8617200000
      3  C         1.6122968147    0.0000000000   -0.9308600000
      4  C        -1.6122968147    0.0000000000   -0.9308600000
      5  O        -2.6086417213    0.0000000000   -1.5061000000
      6  O         0.0000000000    0.0000000000    3.0122000000
      7  O         2.6086417213    0.0000000000   -1.5061000000

Z-matrix Print:
$molecule
0 1
Fe
C  1 1.861720
O  2 1.150480 1 179.999998
C  1 1.861720 2 120.000000 3 0.000000 0
O  4 1.150480 1 180.000000 1 0.000000 0
C  1 1.861720 2 120.000000 1 0.000000 0
O  6 1.150480 1 180.000000 1 0.000000 0
$end

 
 --------------------------------------------------------------
 
                    Orbital Energies (a.u.)
 --------------------------------------------------------------
 
 Alpha MOs
 -- Occupied --
******** -31.8918 -27.3767 -27.3700 -27.3700 -20.6585 -20.6585 -20.6585
-11.3835 -11.3835 -11.3835  -4.0909  -2.6777  -2.6712  -2.6712  -1.5013
 -1.5012  -1.5012  -0.8095  -0.7990  -0.7990  -0.6640  -0.6370  -0.6370
 -0.6288  -0.6251  -0.6251  -0.6210  -0.6188  -0.6188  -0.4903  -0.4903
 -0.3135  -0.3135
 -- Virtual --
  0.0180   0.0603   0.1149   0.1149   0.1350   0.1448   0.1491   0.1491
  0.1658   0.1658   0.1683   0.3465   0.3467   0.3699   0.3699   0.3938
  0.3938   0.4263   0.4957   0.4957   0.5481   0.5875   0.5875   0.7603
  0.7603   0.7779   0.7817   0.8189   0.8524   0.8524   0.9029   0.9029
  0.9949   1.0002   1.0297   1.0297   1.2511   1.2511   1.2739   1.2739
  1.2929   1.3144   1.3145   1.3185   1.3185   1.3273   1.3612   1.3715
  1.3715   1.4102   1.4102   1.4430   1.4430   1.4583   1.4983   1.4983
  1.6122   1.6525   1.7229   1.7229   2.0227   2.0227   2.0778   2.0953
  2.0953   2.1336   2.3140   2.3140   2.8611   2.9421   2.9430   2.9430
  2.9450   2.9450   2.9561   3.0497   3.0497   3.2454   3.3038   3.3065
  3.3065   3.5419   3.5419   3.7208   3.7208   3.7353   3.7923   3.7923
  3.8404   3.9351   4.0834   4.0834   4.3978
 --------------------------------------------------------------
 
          Ground-State Mulliken Net Atomic Charges

     Atom                 Charge (a.u.)
  ----------------------------------------
      1 Fe                   -0.004332
      2 C                     0.030352
      3 C                     0.030352
      4 C                     0.030351
      5 O                    -0.028908
      6 O                    -0.028908
      7 O                    -0.028908
  ----------------------------------------
  Sum of atomic charges =     0.000000

 -----------------------------------------------------------------
                    Cartesian Multipole Moments
 -----------------------------------------------------------------
    Charge (ESU x 10^10)
                -0.0000
    Dipole Moment (Debye)
         X      -0.0000      Y      -0.0000      Z      -0.0000
       Tot       0.0000
    Quadrupole Moments (Debye-Ang)
        XX     -52.3983     XY       0.0000     YY     -42.8047
        XZ      -0.0000     YZ      -0.0000     ZZ     -52.3983
    Octopole Moments (Debye-Ang^2)
       XXX      -0.0000    XXY      -0.0000    XYY      -0.0000
       YYY      -0.0000    XXZ       8.4280    XYZ       0.0000
       YYZ      -0.0000    XZZ      -0.0000    YZZ       0.0000
       ZZZ      -8.4280
    Hexadecapole Moments (Debye-Ang^3)
      XXXX    -690.4064   XXXY       0.0000   XXYY    -110.0598
      XYYY       0.0000   YYYY     -39.7385   XXXZ      -0.0000
      XXYZ      -0.0000   XYYZ      -0.0000   YYYZ      -0.0000
      XXZZ    -230.1355   XYZZ       0.0000   YYZZ    -110.0598
      XZZZ      -0.0000   YZZZ      -0.0000   ZZZZ    -690.4064
 -----------------------------------------------------------------
 Total job time:  675.91s(wall), 12325.67s(cpu) 
 Mon Jan 15 05:51:57 2024

        *************************************************************
        *                                                           *
        *  Thank you very much for using Q-Chem.  Have a nice day.  *
        *                                                           *
        *************************************************************


