                  Welcome to Q-Chem
     A Quantum Leap Into The Future Of Chemistry


 Q-Chem 6.1 (devel), Q-Chem, Inc., Pleasanton, CA (2022)

 E. Epifanovsky,  A. T. B. Gilbert,  Xintian Feng,  Joonho Lee,  Yuezhi Mao,  
 N. Mardirossian,  P. Pokhilko,  A. White,  M. Wormit,  M. P. Coons,  
 A. L. Dempwolff,  Zhengting Gan,  D. Hait,  P. R. Horn,  L. D. Jacobson,  
 I. Kaliman,  J. Kussmann,  A. W. Lange,  Ka Un Lao,  D. S. Levine,  Jie Liu,  
 S. C. McKenzie,  A. F. Morrison,  K. D. Nanda,  F. Plasser,  D. R. Rehn,  
 M. L. Vidal,  Zhi-Qiang You,  Ying Zhu,  B. Alam,  B. Albrecht,  
 A. Aldossary,  E. Alguire,  J. H. Andersen,  V. Athavale,  D. Barton,  
 K. Begam,  A. Behn,  N. Bellonzi,  Y. A. Bernard,  E. J. Berquist,  
 H. Burton,  A. Carreras,  K. Carter-Fenk,  Mathew Chow,  Romit Chakraborty,  
 Chandrima Chakravarty,  Junhan Chen,  A. D. Chien,  K. D. Closser,  
 V. Cofer-Shabica,  L. Cunha,  S. Dasgupta,  Jia Deng,  M. de Wergifosse,  
 M. Diedenhofen,  Hainam Do,  S. Ehlert,  Po-Tung Fang,  S. Fatehi,  
 Qingguo Feng,  T. Friedhoff,  Thomas Froitzheim,  B. Ganoe,  J. Gayvert,  
 Qinghui Ge,  G. Gidofalvi,  M. Gimferrer,  M. Goldey,  Montgomery Gray,  
 J. Gomes,  C. Gonzalez-Espinoza,  S. Gulania,  A. Gunina,  J. A. Gyamfi,  
 M. W. D. Hanson-Heine,  P. H. P. Harbach,  A. W. Hauser,  M. F. Herbst,  
 M. Hernandez Vera,  M. Hodecker,  Z. C. Holden,  S. Houck,  Xunkun Huang,  
 Kerwin Hui,  B. C. Huynh,  K. Ikeda,  M. Ivanov,  Hyunjun Ji,  Zuxin Jin,  
 Hanjie Jiang,  Subrata Jana,  B. Kaduk,  S. Kaehler,  R. Kang,  
 K. Khistyaev,  Jaehoon Kim,  Yongbin Kim,  P. Klunzinger,  Z. Koczor-Benda,  
 Joong Hoon Koh,  D. Kosenkov,  Saikiran Kotaru,  L. Koulias,  T. Kowalczyk,  
 C. M. Krauter,  K. Kue,  A. Kunitsa,  T. Kus,  A. Landau,  K. V. Lawler,  
 D. Lefrancois,  S. Lehtola,  Rain Li,  Shaozhi Li,  Yi-Pei Li,  
 Jiashu Liang,  M. Liebenthal,  Hung-Hsuan Lin,  You-Sheng Lin,  Fenglai Liu,  
 Kuan-Yu Liu,  Xiao Liu,  M. Loipersberger,  A. Luenser,  C. Malbon,  
 A. Manjanath,  P. Manohar,  E. Mansoor,  S. F. Manzer,  Shan-Ping Mao,  
 A. V. Marenich,  T. Markovich,  S. Mason,  F. Matz,  S. A. Maurer,  
 P. F. McLaughlin,  M. F. S. J. Menger,  J.-M. Mewes,  S. A. Mewes,  
 P. Morgante,  Mohammad Mostafanejad,  J. W. Mullinax,  K. J. Oosterbaan,  
 G. Paran,  V. Parravicini,  Alexander C. Paul,  Suranjan K. Paul,  
 F. Pavosevic,  Zheng Pei,  S. Prager,  E. I. Proynov,  E. Ramos,  B. Rana,  
 A. E. Rask,  A. Rettig,  R. M. Richard,  F. Rob,  E. Rossomme,  T. Scheele,  
 M. Scheurer,  M. Schneider,  P. E. Schneider,  Tim K. Schramm,  N. Sergueev,  
 S. M. Sharada,  M. Sharma,  Hengyuan Shen,  W. Skomorowski,  D. W. Small,  
 C. J. Stein,  Alistair J. Sterling,  Yingli Su,  Yu-Chuan Su,  
 E. J. Sundstrom,  J. Talbot,  Zhen Tao,  J. Thirman,  Hung-Yi Tsai,  
 T. Tsuchimochi,  N. M. Tubman,  C. Utku,  S. P. Veccham,  O. Vydrov,  
 J. Wenzel,  Jonathan Wong,  J. Witte,  A. Yamada,  Chou-Hsun Yang,  Kun Yao,  
 S. Yeganeh,  S. R. Yost,  A. Zech,  F. Zeller,  Igor Ying Zhang,  
 Xing Zhang,  Yu Zhang,  D. Zuev,  A. Aspuru-Guzik,  A. T. Bell,  
 N. A. Besley,  K. B. Bravaya,  B. R. Brooks,  D. Casanova,  Jeng-Da Chai,  
 Hsing-Ta Chen,  S. Coriani,  C. J. Cramer,  A. E. DePrince, III,  
 R. A. DiStasio Jr.,  A. Dreuw,  B. D. Dunietz,  T. R. Furlani,  
 W. A. Goddard III,  S. Grimme,  S. Hammes-Schiffer,  T. Head-Gordon,  
 W. J. Hehre,  Chao-Ping Hsu,  T.-C. Jagau,  Yousung Jung,  A. Klamt,  
 Jing Kong,  D. S. Lambrecht,  Xiangyuan Li,  WanZhen Liang,  N. J. Mayhall,  
 C. W. McCurdy,  J. B. Neaton,  T. Neudecker,  C. Ochsenfeld,  
 J. A. Parkhill,  R. Peverati,  V. A. Rassolov,  Haisheng Ren,  Yihan Shao,  
 L. V. Slipchenko,  R. P. Steele,  J. E. Subotnik,  A. J. W. Thom,  
 A. Tkatchenko,  D. G. Truhlar,  T. Van Voorhis,  Fan Wang,  
 T. A. Wesolowski,  K. B. Whaley,  H. L. Woodcock III,  P. M. Zimmerman,  
 S. Faraji,  P. M. W. Gill,  M. Head-Gordon,  J. M. Herbert,  A. I. Krylov

 Contributors to earlier versions of Q-Chem not listed above: 
 R. D. Adamson,  B. Austin,  R. Baer,  J. Baker,  G. J. O. Beran,  
 K. Brandhorst,  S. T. Brown,  E. F. C. Byrd,  Arup K. Chakraborty,  
 G. K. L. Chan,  Chun-Min Chang,  Yunqing Chen,  C.-L. Cheng,  
 Siu Hung Chien,  D. M. Chipman,  D. L. Crittenden,  H. Dachsel,  
 R. J. Doerksen,  A. D. Dutoi,  R. G. Edgar,  J. Fosso-Tande,  
 L. Fusti-Molnar,  D. Ghosh,  A. Ghysels,  A. Golubeva-Zadorozhnaya,  
 J. Gonthier,  M. S. Gordon,  S. R. Gwaltney,  G. Hawkins,  J. E. Herr,  
 A. Heyden,  S. Hirata,  E. G. Hohenstein,  G. Kedziora,  F. J. Keil,  
 C. Kelley,  Jihan Kim,  R. A. King,  R. Z. Khaliullin,  P. P. Korambath,  
 W. Kurlancheek,  A. Laurent,  A. M. Lee,  M. S. Lee,  S. V. Levchenko,  
 Ching Yeh Lin,  D. Liotard,  E. Livshits,  R. C. Lochan,  I. Lotan,  
 L. A. Martinez-Martinez,  P. E. Maslen,  N. Nair,  D. P. O'Neill,  
 D. Neuhauser,  E. Neuscamman,  C. M. Oana,  R. Olivares-Amaya,  R. Olson,  
 T. M. Perrine,  B. Peters,  P. A. Pieniazek,  A. Prociuk,  Y. M. Rhee,  
 J. Ritchie,  M. A. Rohrdanz,  E. Rosta,  N. J. Russ,  H. F. Schaefer III,  
 M. W. Schmidt,  N. E. Schultz,  S. Sharma,  N. Shenvi,  C. D. Sherrill,  
 A. C. Simmonett,  A. Sodt,  T. Stein,  D. Stuck,  K. S. Thanthiriwatte,  
 V. Vanovschi,  L. Vogt,  Tao Wang,  A. Warshel,  M. A. Watson,  
 C. F. Williams,  Q. Wu,  X. Xu,  Jun Yang,  W. Zhang,  Yan Zhao

   Please cite Q-Chem as follows:
  "Software for the frontiers of quantum chemistry:
   An overview of developments in the Q-Chem 5 package"
   J. Chem. Phys. 155, 084801 (2021)
   https://doi.org/10.1063/5.0055522 (open access)

 Q-Chem 6.1.0 for Intel X86 EM64T Linux

 Parts of Q-Chem use Armadillo 9.900.5 (Nocturnal Misbehaviour).
 http://arma.sourceforge.net/

 Q-Chem begins on Mon Jan 15 03:41:29 2024  

 Host: n0033.mhg0
0

     Scratch files written to /local/scratch/users/juanes/O-CCSD_FeCO5-D3h-S0.in20240115034118//
 Processing $rem in /global/home/groups-sw/mhg/qchem_public/qchem_6101/config/preferences:
 Processing $rem in /global/home/users/juanes/.qchemrc:

 Checking the input file for inconsistencies... 	...done.

--------------------------------------------------------------
User input:
--------------------------------------------------------------
$comment
  Plain old SCF on the ground state.
$end

$molecule
  0   1
  Fe
  C   1   rFeC_Ax
  C   1   rFeC_Eq  2  a90
  C   1   rFeC_Eq  3  a120  2 dn90 
  C   1   rFeC_Eq  3  a120  2 d90 
  C   1   rFeC_Ax  3  a90   4 dn90
  O   1   rFeO_Ax  3  a90   4 d90
  O   1   rFeO_Ax  3  a90   4 dn90
  O   1   rFeO_Eq  2  a90   3 d0  
  O   1   rFeO_Eq  2  a90   4 d0  
  O   1   rFeO_Eq  2  a90   5 d0  

  rFeC_Ax =    1.85014
  rFeC_Eq =    1.83281
  rFeO_Ax =    2.99436
  rFeO_Eq =    2.98198
  a90     =   90.00000
  a120    =  120.00000
  dn90    =  -90.00000
  d0      =    0.00000
  d90     =   90.00000
$end

$rem
  METHOD               HF
  UNRESTRICTED         FALSE
  BASIS                GEN
  PURECART             11
  SYMMETRY             FALSE
  SYM_IGNORE           TRUE
  GEN_SCFMAN           TRUE
  SCF_ALGORITHM        DIIS_GDM
  SCF_CONVERGENCE      8
  MAX_SCF_CYCLES       200
  INTERNAL_STABILITY   TRUE
  INTERNAL_STABILITY_ITER 10
  INTERNAL_STABILITY_DAVIDSON_ITER 250
  MEM_TOTAL            32000
  MEM_STATIC           1000
  THRESH               14
$end

$basis
C    0
cc-pVDZ
****
O    0
cc-pVDZ
****
Fe    0
cc-pVDZ
****
$end

--------------------------------------------------------------
 ----------------------------------------------------------------
             Standard Nuclear Orientation (Angstroms)
    I     Atom           X                Y                Z
 ----------------------------------------------------------------
    1      Fe      0.0000000000     0.0000000000     0.0000000000
    2      C       0.0000000000     0.0000000000     1.8501400000
    3      C       1.8328100000     0.0000000000     0.0000000000
    4      C      -0.9164050000    -1.5872600203     0.0000000000
    5      C      -0.9164050000     1.5872600203     0.0000000000
    6      C       0.0000000000    -0.0000000000    -1.8501400000
    7      O       0.0000000000    -0.0000000000     2.9943600000
    8      O       0.0000000000    -0.0000000000    -2.9943600000
    9      O       2.9819800000     0.0000000000     0.0000000000
   10      O      -1.4909900000    -2.5824704336     0.0000000000
   11      O      -1.4909900000     2.5824704336     0.0000000000
 ----------------------------------------------------------------
 Nuclear Repulsion Energy =         793.30709699 hartrees
 There are       48 alpha and       48 beta electrons
 Requested basis set is non-standard
 There are 75 shells and 183 basis functions

 Total QAlloc Memory Limit  32000 MB
 Mega-Array Size       978 MB
 MEM_STATIC part      1000 MB


                       Distance Matrix (Angstroms)
             Fe(  1)   C (  2)   C (  3)   C (  4)   C (  5)   C (  6)
   C (  2)  1.850140
   C (  3)  1.832810  2.604268
   C (  4)  1.832810  2.604268  3.174520
   C (  5)  1.832810  2.604268  3.174520  3.174520
   C (  6)  1.850140  3.700280  2.604268  2.604268  2.604268
   O (  7)  2.994360  1.144220  3.510753  3.510753  3.510753  4.844500
   O (  8)  2.994360  4.844500  3.510753  3.510753  3.510753  1.144220
   O (  9)  2.981980  3.509305  1.149170  4.209133  4.209133  3.509305
   O ( 10)  2.981980  3.509305  4.209133  1.149170  4.209133  3.509305
   O ( 11)  2.981980  3.509305  4.209133  4.209133  1.149170  3.509305
             O (  7)   O (  8)   O (  9)   O ( 10)
   O (  8)  5.988720
   O (  9)  4.225920  4.225920
   O ( 10)  4.225920  4.225920  5.164941
   O ( 11)  4.225920  4.225920  5.164941  5.164941
 
 A cutoff of  1.0D-14 yielded   2578 shell pairs
 There are     15778 function pairs (     18693 Cartesian)
 Smallest overlap matrix eigenvalue = 1.58E-04

 Scale SEOQF with 1.000000e-01/1.000000e-01/1.000000e-01

 Standard Electronic Orientation quadrupole field applied
 Nucleus-field energy     =    -0.0000000051 hartrees
 ================ Generating on-the-fly SAD Guess ================
 Attempting to make child job directory: /local/scratch/users/juanes/O-CCSD_FeCO5-D3h-S0.in20240115034118//Frg1/
 Attempting to make child job directory: /local/scratch/users/juanes/O-CCSD_FeCO5-D3h-S0.in20240115034118//Frg2/
 Attempting to make child job directory: /local/scratch/users/juanes/O-CCSD_FeCO5-D3h-S0.in20240115034118//Frg3/
 Creating input file /local/scratch/users/juanes/O-CCSD_FeCO5-D3h-S0.in20240115034118/Frg1.input
 using default PutDataFrgm: nothing
 calling putenv with: QCSCRATCH=/local/scratch/users/juanes/O-CCSD_FeCO5-D3h-S0.in20240115034118/ 
 Spawning Job For Fragment 0
 Done Job For Fragment 0
 calling putenv with: QCSCRATCH=/local/scratch/users/juanes 
 calling putenv with: QCTHREADS=32 
 Creating input file /local/scratch/users/juanes/O-CCSD_FeCO5-D3h-S0.in20240115034118/Frg2.input
 using default PutDataFrgm: nothing
 calling putenv with: QCSCRATCH=/local/scratch/users/juanes/O-CCSD_FeCO5-D3h-S0.in20240115034118/ 
 Spawning Job For Fragment 1
 Done Job For Fragment 1
 calling putenv with: QCSCRATCH=/local/scratch/users/juanes 
 calling putenv with: QCTHREADS=32 
 Creating input file /local/scratch/users/juanes/O-CCSD_FeCO5-D3h-S0.in20240115034118/Frg3.input
 using default PutDataFrgm: nothing
 calling putenv with: QCSCRATCH=/local/scratch/users/juanes/O-CCSD_FeCO5-D3h-S0.in20240115034118/ 
 Spawning Job For Fragment 2
 Done Job For Fragment 2
 calling putenv with: QCSCRATCH=/local/scratch/users/juanes 
 calling putenv with: QCTHREADS=32 
 Time for running child jobs:  CPU 4.92 s  wall 443.52 s
 ============= Method Specific SAD Guess Constructed =============
 Guess from on-the-fly superposition of atomic densities
 Warning: Energy on first SCF cycle will be non-variational

 -----------------------------------------------------------------------
  General SCF calculation program by
  Eric Jon Sundstrom, Paul Horn, Yuezhi Mao, Dmitri Zuev, Alec White,
  David Stuck, Shaama M.S., Shane Yost, Joonho Lee, David Small,
  Daniel Levine, Susi Lehtola, Hugh Burton, Evgeny Epifanovsky,
  Bang C. Huynh
 -----------------------------------------------------------------------
 Hartree-Fock
Running Object-Oriented RKS (RHF)
 using 32 threads for integral computing
 -------------------------------------------------------
 OpenMP Integral computing Module                
 Release: version 1.0, May 2013, Q-Chem Inc. Pittsburgh 
 -------------------------------------------------------
Printing hybrid method specification in gen_scfman_hybrid_algorithm
algorithm ALGO_ID will be run until the gradient/residual is below 1E-ALGO_CONV
or ALGO_ITER iterations have been performed
----------------------------------------------
  ALGO_ID        ALGO_CONV         ALGO_ITER
----------------------------------------------
  DIIS                    2           50
  GDM                     8           200
----------------------------------------------
We will preform up to 10 macro iterations over saddle points until a stable solution is found
Energy prior to optimization (guess energy) = -1825.413663928482
Begin Timing: Total SCF Calculation
Begin Timing: SCF Single Stationary Point Calculation
Begin Timing: Algorithm 1
begin iterations for algorithm: DIIS         
the SCF tolerance is set to 1.00e-02
    1   -1825.4136639285      1.42e-02     00000 
    2   -1823.4252242418      3.43e-02     00000 
    3   -1825.9298512955      3.87e-03     Intermediate Algorithm Converged
successfully completed hybrid algorithm stage: 1
Timing for Algorithm DIIS          : 32.00s (wall), 552.27s (cpu)
Begin Timing: Algorithm 2
begin iterations for algorithm: GDM          
the SCF tolerance is set to 1.00e-08
    1   -1825.9298512955      1.20e-01     00000  Normal BFGS step
    2   -1825.8398725809      3.40e-01     00000 Line search: overstep
    3   -1825.9634482555      7.91e-02     00000  Normal BFGS step
    4   -1825.9777197671      5.97e-02     00000  Normal BFGS step
    5   -1825.9944149233      1.71e-02     00000  Normal BFGS step
    6   -1825.9966459368      9.32e-03     00000  Normal BFGS step
    7   -1825.9975737607      5.25e-03     00000  Normal BFGS step
    8   -1825.9979075653      4.30e-03     00000  Normal BFGS step
    9   -1825.9980250025      1.16e-03     00000  Normal BFGS step
   10   -1825.9980343834      1.12e-04     00000  Normal BFGS step
   11   -1825.9980348576      7.75e-05     00000  Normal BFGS step
   12   -1825.9980349020      3.30e-05     00000  Normal BFGS step
   13   -1825.9980349174      1.05e-05     00000  Normal BFGS step
   14   -1825.9980349194      4.87e-06     00000  Normal BFGS step
   15   -1825.9980349196      1.33e-06     00000  Normal BFGS step
   16   -1825.9980349197      4.35e-07     00000  Normal BFGS step
   17   -1825.9980349197      1.25e-07     00000  Normal BFGS step
   18   -1825.9980349197      1.26e-07     00000  Normal BFGS step
   19   -1825.9980349197      9.79e-08     00000  Normal BFGS step
   20   -1825.9980349197      6.97e-09     00000 Convergence criterion met
Timing for Algorithm GDM           : 312.00s (wall), 6173.36s (cpu)
Timing for Single Stationary Point: 344.00s (wall), 6725.63s (cpu)
Begin Timing: Stability
===================================================
Beginning Test for Internal Stability
===================================================
generating davidson guess vectors based on koopmans excitations
    1      1.57e+00     00000 Davidson Iteration
    2      6.49e-01     00000 Davidson Iteration
    3      4.62e-01     00000 Davidson Iteration
    4      5.47e-01     00000 Davidson Iteration
    5      2.68e-01     00000 Davidson Iteration
    6      4.77e-01     00000 Davidson Iteration
    7      5.66e-01     00000 Davidson Iteration
    8      3.37e-01     00000 Davidson Iteration
    9      1.99e-01     00000 Davidson Iteration
   10      2.30e-01     00000 Davidson Iteration
   11      9.82e-02     00000 Davidson Iteration
   12      2.07e-02     00000 Davidson Iteration
   13      1.63e-02     00000 Davidson Iteration
   14      4.18e-03     00000 Davidson Iteration
   15      1.10e-03     00000 Davidson Iteration
   16      4.84e-04     00000 Davidson Iteration
   17      3.56e-04     00000 Davidson Iteration
   18      1.81e-04     00000 Davidson Iteration
   19      1.73e-04     00000 Davidson Iteration
   20      1.98e-04     00000 Davidson Iteration
   21      1.07e-04     00000 Davidson Iteration
   22      8.66e-05     00000 Davidson Iteration
   23      1.15e-04     00000 Davidson Iteration
   24      5.58e-05     00000 Davidson Converged
converged_eigenvalues
   0.1482
   0.1482
Threshold for negative eigenvalues: -1.0e-05
solution was a local minimum (stable)
===================================================
End Test for Internal Stability
===================================================
Timing for Internal Stability: 945.00s (wall), 27142.68s (cpu)
Our SCF solution is stable!
Timing for Total SCF: 1289.00s (wall), 33868.57s (cpu)
 Total energy in the final basis set =    -1825.9980349197
    ==================================================
              The end of Object-Oriented SCFman       
    ==================================================
 
 --------------------------------------------------------------
 
                    Orbital Energies (a.u.)
 --------------------------------------------------------------
 
 Alpha MOs
 -- Occupied --
******** -31.9419 -27.4278 -27.4177 -27.4177 -20.6906 -20.6906 -20.6630
-20.6630 -20.6630 -11.4103 -11.4103 -11.3926 -11.3926 -11.3926  -4.1219
 -2.7105  -2.6986  -2.6986  -1.5359  -1.5358  -1.5084  -1.5082  -1.5082
 -0.8601  -0.8286  -0.8077  -0.8061  -0.8061  -0.7274  -0.6704  -0.6704
 -0.6668  -0.6668  -0.6663  -0.6436  -0.6436  -0.6336  -0.6280  -0.6280
 -0.6217  -0.6217  -0.6016  -0.5999  -0.4782  -0.4782  -0.3383  -0.3383
 -- Virtual --
  0.0829   0.0949   0.0949   0.1058   0.1113   0.1113   0.1379   0.1379
  0.1437   0.1517   0.1564   0.1564   0.2167   0.2167   0.2745   0.3500
  0.3768   0.3768   0.4386   0.4386   0.4788   0.4877   0.5380   0.5431
  0.5431   0.6540   0.6817   0.6817   0.6968   0.6990   0.6990   0.7342
  0.7342   0.7718   0.7777   0.8390   0.8616   0.8616   0.8683   0.8683
  0.9128   0.9317   0.9317   0.9540   0.9917   1.0118   1.0166   1.0166
  1.0620   1.2195   1.2195   1.2323   1.2323   1.2467   1.2511   1.2511
  1.2650   1.2650   1.2889   1.3179   1.3279   1.3279   1.3443   1.3484
  1.3484   1.3874   1.3874   1.4084   1.4084   1.4498   1.4545   1.4904
  1.4904   1.5073   1.5073   1.5810   1.5966   1.5966   1.6197   1.7000
  1.7000   1.7171   1.7171   1.7571   1.8118   1.8475   1.8475   1.9658
  2.1174   2.1346   2.1529   2.1529   2.1678   2.2917   2.2917   2.4796
  2.5137   2.5137   2.8372   2.8977   2.9201   2.9201   2.9220   2.9220
  2.9372   2.9413   2.9413   2.9428   2.9428   2.9586   3.0788   3.0788
  3.2363   3.3039   3.3039   3.4791   3.4791   3.4937   3.4937   3.4950
  3.5775   3.5775   3.5816   3.7847   3.7847   3.8517   3.8554   3.8733
  3.8733   3.9631   3.9929   4.2040   4.2040   4.4417   4.5234
 --------------------------------------------------------------
 
          Ground-State Mulliken Net Atomic Charges

     Atom                 Charge (a.u.)
  ----------------------------------------
      1 Fe                   -0.292777
      2 C                     0.171861
      3 C                     0.215697
      4 C                     0.215697
      5 C                     0.215697
      6 C                     0.171861
      7 O                    -0.123581
      8 O                    -0.123581
      9 O                    -0.150292
     10 O                    -0.150292
     11 O                    -0.150292
  ----------------------------------------
  Sum of atomic charges =     0.000000

 -----------------------------------------------------------------
                    Cartesian Multipole Moments
 -----------------------------------------------------------------
    Charge (ESU x 10^10)
                -0.0000
    Dipole Moment (Debye)
         X       0.0000      Y      -0.0000      Z       0.0000
       Tot       0.0000
    Quadrupole Moments (Debye-Ang)
        XX     -73.8795     XY       0.0000     YY     -73.8795
        XZ      -0.0000     YZ      -0.0000     ZZ     -70.1849
    Octopole Moments (Debye-Ang^2)
       XXX     -14.3652    XXY      -0.0000    XYY      14.3652
       YYY      -0.0000    XXZ      -0.0000    XYZ       0.0000
       YYZ      -0.0000    XZZ       0.0000    YZZ      -0.0000
       ZZZ       0.0000
    Hexadecapole Moments (Debye-Ang^3)
      XXXX    -716.0010   XXXY       0.0000   XXYY    -238.6670
      XYYY       0.0000   YYYY    -716.0010   XXXZ       0.0000
      XXYZ       0.0000   XYYZ      -0.0000   YYYZ      -0.0000
      XXZZ    -236.3471   XYZZ       0.0000   YYZZ    -236.3471
      XZZZ      -0.0000   YZZZ      -0.0000   ZZZZ    -935.1602
 -----------------------------------------------------------------
 Total job time:  1757.95s(wall), 34329.90s(cpu) 
 Mon Jan 15 04:10:47 2024

        *************************************************************
        *                                                           *
        *  Thank you very much for using Q-Chem.  Have a nice day.  *
        *                                                           *
        *************************************************************


 
User input: 2 of 2 
 
                  Welcome to Q-Chem
     A Quantum Leap Into The Future Of Chemistry


 Q-Chem 6.1 (devel), Q-Chem, Inc., Pleasanton, CA (2022)

 E. Epifanovsky,  A. T. B. Gilbert,  Xintian Feng,  Joonho Lee,  Yuezhi Mao,  
 N. Mardirossian,  P. Pokhilko,  A. White,  M. Wormit,  M. P. Coons,  
 A. L. Dempwolff,  Zhengting Gan,  D. Hait,  P. R. Horn,  L. D. Jacobson,  
 I. Kaliman,  J. Kussmann,  A. W. Lange,  Ka Un Lao,  D. S. Levine,  Jie Liu,  
 S. C. McKenzie,  A. F. Morrison,  K. D. Nanda,  F. Plasser,  D. R. Rehn,  
 M. L. Vidal,  Zhi-Qiang You,  Ying Zhu,  B. Alam,  B. Albrecht,  
 A. Aldossary,  E. Alguire,  J. H. Andersen,  V. Athavale,  D. Barton,  
 K. Begam,  A. Behn,  N. Bellonzi,  Y. A. Bernard,  E. J. Berquist,  
 H. Burton,  A. Carreras,  K. Carter-Fenk,  Mathew Chow,  Romit Chakraborty,  
 Chandrima Chakravarty,  Junhan Chen,  A. D. Chien,  K. D. Closser,  
 V. Cofer-Shabica,  L. Cunha,  S. Dasgupta,  Jia Deng,  M. de Wergifosse,  
 M. Diedenhofen,  Hainam Do,  S. Ehlert,  Po-Tung Fang,  S. Fatehi,  
 Qingguo Feng,  T. Friedhoff,  Thomas Froitzheim,  B. Ganoe,  J. Gayvert,  
 Qinghui Ge,  G. Gidofalvi,  M. Gimferrer,  M. Goldey,  Montgomery Gray,  
 J. Gomes,  C. Gonzalez-Espinoza,  S. Gulania,  A. Gunina,  J. A. Gyamfi,  
 M. W. D. Hanson-Heine,  P. H. P. Harbach,  A. W. Hauser,  M. F. Herbst,  
 M. Hernandez Vera,  M. Hodecker,  Z. C. Holden,  S. Houck,  Xunkun Huang,  
 Kerwin Hui,  B. C. Huynh,  K. Ikeda,  M. Ivanov,  Hyunjun Ji,  Zuxin Jin,  
 Hanjie Jiang,  Subrata Jana,  B. Kaduk,  S. Kaehler,  R. Kang,  
 K. Khistyaev,  Jaehoon Kim,  Yongbin Kim,  P. Klunzinger,  Z. Koczor-Benda,  
 Joong Hoon Koh,  D. Kosenkov,  Saikiran Kotaru,  L. Koulias,  T. Kowalczyk,  
 C. M. Krauter,  K. Kue,  A. Kunitsa,  T. Kus,  A. Landau,  K. V. Lawler,  
 D. Lefrancois,  S. Lehtola,  Rain Li,  Shaozhi Li,  Yi-Pei Li,  
 Jiashu Liang,  M. Liebenthal,  Hung-Hsuan Lin,  You-Sheng Lin,  Fenglai Liu,  
 Kuan-Yu Liu,  Xiao Liu,  M. Loipersberger,  A. Luenser,  C. Malbon,  
 A. Manjanath,  P. Manohar,  E. Mansoor,  S. F. Manzer,  Shan-Ping Mao,  
 A. V. Marenich,  T. Markovich,  S. Mason,  F. Matz,  S. A. Maurer,  
 P. F. McLaughlin,  M. F. S. J. Menger,  J.-M. Mewes,  S. A. Mewes,  
 P. Morgante,  Mohammad Mostafanejad,  J. W. Mullinax,  K. J. Oosterbaan,  
 G. Paran,  V. Parravicini,  Alexander C. Paul,  Suranjan K. Paul,  
 F. Pavosevic,  Zheng Pei,  S. Prager,  E. I. Proynov,  E. Ramos,  B. Rana,  
 A. E. Rask,  A. Rettig,  R. M. Richard,  F. Rob,  E. Rossomme,  T. Scheele,  
 M. Scheurer,  M. Schneider,  P. E. Schneider,  Tim K. Schramm,  N. Sergueev,  
 S. M. Sharada,  M. Sharma,  Hengyuan Shen,  W. Skomorowski,  D. W. Small,  
 C. J. Stein,  Alistair J. Sterling,  Yingli Su,  Yu-Chuan Su,  
 E. J. Sundstrom,  J. Talbot,  Zhen Tao,  J. Thirman,  Hung-Yi Tsai,  
 T. Tsuchimochi,  N. M. Tubman,  C. Utku,  S. P. Veccham,  O. Vydrov,  
 J. Wenzel,  Jonathan Wong,  J. Witte,  A. Yamada,  Chou-Hsun Yang,  Kun Yao,  
 S. Yeganeh,  S. R. Yost,  A. Zech,  F. Zeller,  Igor Ying Zhang,  
 Xing Zhang,  Yu Zhang,  D. Zuev,  A. Aspuru-Guzik,  A. T. Bell,  
 N. A. Besley,  K. B. Bravaya,  B. R. Brooks,  D. Casanova,  Jeng-Da Chai,  
 Hsing-Ta Chen,  S. Coriani,  C. J. Cramer,  A. E. DePrince, III,  
 R. A. DiStasio Jr.,  A. Dreuw,  B. D. Dunietz,  T. R. Furlani,  
 W. A. Goddard III,  S. Grimme,  S. Hammes-Schiffer,  T. Head-Gordon,  
 W. J. Hehre,  Chao-Ping Hsu,  T.-C. Jagau,  Yousung Jung,  A. Klamt,  
 Jing Kong,  D. S. Lambrecht,  Xiangyuan Li,  WanZhen Liang,  N. J. Mayhall,  
 C. W. McCurdy,  J. B. Neaton,  T. Neudecker,  C. Ochsenfeld,  
 J. A. Parkhill,  R. Peverati,  V. A. Rassolov,  Haisheng Ren,  Yihan Shao,  
 L. V. Slipchenko,  R. P. Steele,  J. E. Subotnik,  A. J. W. Thom,  
 A. Tkatchenko,  D. G. Truhlar,  T. Van Voorhis,  Fan Wang,  
 T. A. Wesolowski,  K. B. Whaley,  H. L. Woodcock III,  P. M. Zimmerman,  
 S. Faraji,  P. M. W. Gill,  M. Head-Gordon,  J. M. Herbert,  A. I. Krylov

 Contributors to earlier versions of Q-Chem not listed above: 
 R. D. Adamson,  B. Austin,  R. Baer,  J. Baker,  G. J. O. Beran,  
 K. Brandhorst,  S. T. Brown,  E. F. C. Byrd,  Arup K. Chakraborty,  
 G. K. L. Chan,  Chun-Min Chang,  Yunqing Chen,  C.-L. Cheng,  
 Siu Hung Chien,  D. M. Chipman,  D. L. Crittenden,  H. Dachsel,  
 R. J. Doerksen,  A. D. Dutoi,  R. G. Edgar,  J. Fosso-Tande,  
 L. Fusti-Molnar,  D. Ghosh,  A. Ghysels,  A. Golubeva-Zadorozhnaya,  
 J. Gonthier,  M. S. Gordon,  S. R. Gwaltney,  G. Hawkins,  J. E. Herr,  
 A. Heyden,  S. Hirata,  E. G. Hohenstein,  G. Kedziora,  F. J. Keil,  
 C. Kelley,  Jihan Kim,  R. A. King,  R. Z. Khaliullin,  P. P. Korambath,  
 W. Kurlancheek,  A. Laurent,  A. M. Lee,  M. S. Lee,  S. V. Levchenko,  
 Ching Yeh Lin,  D. Liotard,  E. Livshits,  R. C. Lochan,  I. Lotan,  
 L. A. Martinez-Martinez,  P. E. Maslen,  N. Nair,  D. P. O'Neill,  
 D. Neuhauser,  E. Neuscamman,  C. M. Oana,  R. Olivares-Amaya,  R. Olson,  
 T. M. Perrine,  B. Peters,  P. A. Pieniazek,  A. Prociuk,  Y. M. Rhee,  
 J. Ritchie,  M. A. Rohrdanz,  E. Rosta,  N. J. Russ,  H. F. Schaefer III,  
 M. W. Schmidt,  N. E. Schultz,  S. Sharma,  N. Shenvi,  C. D. Sherrill,  
 A. C. Simmonett,  A. Sodt,  T. Stein,  D. Stuck,  K. S. Thanthiriwatte,  
 V. Vanovschi,  L. Vogt,  Tao Wang,  A. Warshel,  M. A. Watson,  
 C. F. Williams,  Q. Wu,  X. Xu,  Jun Yang,  W. Zhang,  Yan Zhao

   Please cite Q-Chem as follows:
  "Software for the frontiers of quantum chemistry:
   An overview of developments in the Q-Chem 5 package"
   J. Chem. Phys. 155, 084801 (2021)
   https://doi.org/10.1063/5.0055522 (open access)

 Q-Chem 6.1.0 for Intel X86 EM64T Linux

 Parts of Q-Chem use Armadillo 9.900.5 (Nocturnal Misbehaviour).
 http://arma.sourceforge.net/

 Q-Chem begins on Mon Jan 15 04:10:47 2024  

 Host: n0033.mhg0
0

     Scratch files written to /local/scratch/users/juanes/O-CCSD_FeCO5-D3h-S0.in20240115034118//
 Processing $rem in /global/home/groups-sw/mhg/qchem_public/qchem_6101/config/preferences:
 Processing $rem in /global/home/users/juanes/.qchemrc:
 Core orbitals will be frozen

 Checking the input file for inconsistencies... 	...done.

--------------------------------------------------------------
User input:
--------------------------------------------------------------

$comment
  Optimization of the CCSD structure.
$end

$molecule
  0   1
  Fe
  C   1   rFeC_Ax
  C   1   rFeC_Eq  2  a90
  C   1   rFeC_Eq  3  a120  2 dn90 
  C   1   rFeC_Eq  3  a120  2 d90 
  C   1   rFeC_Ax  3  a90   4 dn90
  O   1   rFeO_Ax  3  a90   4 d90
  O   1   rFeO_Ax  3  a90   4 dn90
  O   1   rFeO_Eq  2  a90   3 d0  
  O   1   rFeO_Eq  2  a90   4 d0  
  O   1   rFeO_Eq  2  a90   5 d0  

  rFeC_Ax =    1.85014
  rFeC_Eq =    1.83281
  rFeO_Ax =    2.99436
  rFeO_Eq =    2.98198
  a90     =   90.00000
  a120    =  120.00000
  dn90    =  -90.00000
  d0      =    0.00000
  d90     =   90.00000
$end

$rem
  JOBTYPE              OPT
  METHOD               CCSD
  UNRESTRICTED         FALSE
  BASIS                GEN
  PURECART             11
  SYMMETRY             FALSE
  SYM_IGNORE           TRUE
  GEN_SCFMAN           TRUE
  SCF_GUESS            READ
  SCF_ALGORITHM        GDM
  SCF_CONVERGENCE      7
  MAX_SCF_CYCLES       200
  CC_BACKEND           XM
  CC_MAX_ITER          200
  MEM_TOTAL            32000
  MEM_STATIC           1000
  THRESH               14
$end

$opt
  FIXED
  1 XYZ
  ENDFIXED
$end

$basis
C    0
cc-pVDZ
****
O    0
cc-pVDZ
****
Fe    0
cc-pVDZ
****
$end

--------------------------------------------------------------
 ----------------------------------------------------------------
             Standard Nuclear Orientation (Angstroms)
    I     Atom           X                Y                Z
 ----------------------------------------------------------------
    1      Fe      0.0000000000     0.0000000000     0.0000000000
    2      C       0.0000000000     0.0000000000     1.8501400000
    3      C       1.8328100000     0.0000000000     0.0000000000
    4      C      -0.9164050000    -1.5872600203     0.0000000000
    5      C      -0.9164050000     1.5872600203     0.0000000000
    6      C       0.0000000000    -0.0000000000    -1.8501400000
    7      O       0.0000000000    -0.0000000000     2.9943600000
    8      O       0.0000000000    -0.0000000000    -2.9943600000
    9      O       2.9819800000     0.0000000000     0.0000000000
   10      O      -1.4909900000    -2.5824704336     0.0000000000
   11      O      -1.4909900000     2.5824704336     0.0000000000
 ----------------------------------------------------------------
 Nuclear Repulsion Energy =         793.30709699 hartrees
 There are       48 alpha and       48 beta electrons
 Requested basis set is non-standard
 There are 75 shells and 183 basis functions
 Total memory of 32000 MB is distributed as follows: 
   MEM_STATIC is set to 1000 MB
   QALLOC/CCMAN JOB total memory use is  31000 MB
 Warning: actual memory use might exceed 32000 MB

 Total QAlloc Memory Limit  32000 MB
 Mega-Array Size       978 MB
 MEM_STATIC part      1000 MB

 A cutoff of  1.0D-14 yielded   2578 shell pairs
 There are     15778 function pairs (     18693 Cartesian)
 Smallest overlap matrix eigenvalue = 1.58E-04

 Scale SEOQF with 1.000000e-01/1.000000e-01/1.000000e-01

 Standard Electronic Orientation quadrupole field applied
 Nucleus-field energy     =    -0.0000000051 hartrees
 Guess MOs from SCF MO coefficient file

 -----------------------------------------------------------------------
  General SCF calculation program by
  Eric Jon Sundstrom, Paul Horn, Yuezhi Mao, Dmitri Zuev, Alec White,
  David Stuck, Shaama M.S., Shane Yost, Joonho Lee, David Small,
  Daniel Levine, Susi Lehtola, Hugh Burton, Evgeny Epifanovsky,
  Bang C. Huynh
 -----------------------------------------------------------------------
 Hartree-Fock
 using 32 threads for integral computing
 -------------------------------------------------------
 OpenMP Integral computing Module                
 Release: version 1.0, May 2013, Q-Chem Inc. Pittsburgh 
 -------------------------------------------------------
 A restricted SCF calculation will be
 performed using GDM
 SCF converges when RMS gradient is below 1.0e-07
 ---------------------------------------
  Cycle       Energy        RMS Gradient
 ---------------------------------------
    1   -1825.9980349197      2.84e-09  Convergence criterion met
 ---------------------------------------
 SCF time:   CPU 507.44s  wall 24.00s 
 SCF   energy in the final basis set =    -1825.9980349197
 Total energy in the final basis set =    -1825.9980349197


 ------------------------------------------------------------------------------

   CCMAN2: suite of methods based on coupled cluster
           and equation of motion theories.

   Components:
   * libvmm-1.3-trunk
     by Evgeny Epifanovsky, Ilya Kaliman.
   * libtensor-2.5-trunk
     by Evgeny Epifanovsky, Michael Wormit, Dmitry Zuev, Sam Manzer, 
        Ilya Kaliman.
   * libcc-2.5-trunk
     by Evgeny Epifanovsky, Arik Landau, Tomasz Kus, Kirill Khistyaev, 
        Dmitry Zuev, Prashant Manohar, Xintian Feng, Anna Krylov, 
        Matthew Goldey, Alec White, Thomas Jagau, Kaushik Nanda, 
        Anastasia Gunina, Alexander Kunitsa, Joonho Lee.

   CCMAN original authors:
   Anna I. Krylov, C. David Sherrill, Steven R. Gwaltney,
   Edward F. C. Byrd (2000)
   Sergey V. Levchenko, Lyudmila V. Slipchenko, Tao Wang,
   Ana-Maria C. Cristian (2003)
   Piotr A. Pieniazek, C. Melania Oana, Evgeny Epifanovsky (2007)
   Prashant Manohar (2009)

 ------------------------------------------------------------------------------


 Calculation will run on 32 cores using libxm for tensor contractions

 ------------------------------------------------------------------------------
Libxm Tensor Library
Copyright (c) 2014-2018 Ilya Kaliman
https://github.com/ilyak/libxm
Reference: https://dx.doi.org/10.1002/jcc.24713
 ------------------------------------------------------------------------------

 
 Alpha MOs, Restricted
 -- Occupied --                  
-261.37  -31.94  -27.43  -27.42  -27.42  -20.69  -20.69  -20.66
  1 A     2 A     3 A     4 A     5 A     6 A     7 A     8 A                  
-20.663 -20.663 -11.410 -11.410 -11.393 -11.393 -11.393  -4.122
  9 A    10 A    11 A    12 A    13 A    14 A    15 A    16 A                  
 -2.710  -2.699  -2.699  -1.536  -1.536  -1.508  -1.508  -1.508
 17 A    18 A    19 A    20 A    21 A    22 A    23 A    24 A                  
 -0.860  -0.829  -0.808  -0.806  -0.806  -0.727  -0.670  -0.670
 25 A    26 A    27 A    28 A    29 A    30 A    31 A    32 A                  
 -0.667  -0.667  -0.666  -0.644  -0.644  -0.634  -0.628  -0.628
 33 A    34 A    35 A    36 A    37 A    38 A    39 A    40 A                  
 -0.622  -0.622  -0.602  -0.600  -0.478  -0.478  -0.338  -0.338
 41 A    42 A    43 A    44 A    45 A    46 A    47 A    48 A                  
 -- Virtual --                   
  0.083   0.095   0.095   0.106   0.111   0.111   0.138   0.138
 49 A    50 A    51 A    52 A    53 A    54 A    55 A    56 A                  
  0.144   0.152   0.156   0.156   0.217   0.217   0.275   0.350
 57 A    58 A    59 A    60 A    61 A    62 A    63 A    64 A                  
  0.377   0.377   0.439   0.439   0.479   0.488   0.538   0.543
 65 A    66 A    67 A    68 A    69 A    70 A    71 A    72 A                  
  0.543   0.654   0.682   0.682   0.697   0.699   0.699   0.734
 73 A    74 A    75 A    76 A    77 A    78 A    79 A    80 A                  
  0.734   0.772   0.778   0.839   0.862   0.862   0.868   0.868
 81 A    82 A    83 A    84 A    85 A    86 A    87 A    88 A                  
  0.913   0.932   0.932   0.954   0.992   1.012   1.017   1.017
 89 A    90 A    91 A    92 A    93 A    94 A    95 A    96 A                  
  1.062   1.220   1.220   1.232   1.232   1.247   1.251   1.251
 97 A    98 A    99 A   100 A   101 A   102 A   103 A   104 A                  
  1.265   1.265   1.289   1.318   1.328   1.328   1.344   1.348
105 A   106 A   107 A   108 A   109 A   110 A   111 A   112 A                  
  1.348   1.387   1.387   1.408   1.408   1.450   1.455   1.490
113 A   114 A   115 A   116 A   117 A   118 A   119 A   120 A                  
  1.490   1.507   1.507   1.581   1.597   1.597   1.620   1.700
121 A   122 A   123 A   124 A   125 A   126 A   127 A   128 A                  
  1.700   1.717   1.717   1.757   1.812   1.848   1.848   1.966
129 A   130 A   131 A   132 A   133 A   134 A   135 A   136 A                  
  2.117   2.135   2.153   2.153   2.168   2.292   2.292   2.480
137 A   138 A   139 A   140 A   141 A   142 A   143 A   144 A                  
  2.514   2.514   2.837   2.898   2.920   2.920   2.922   2.922
145 A   146 A   147 A   148 A   149 A   150 A   151 A   152 A                  
  2.937   2.941   2.941   2.943   2.943   2.959   3.079   3.079
153 A   154 A   155 A   156 A   157 A   158 A   159 A   160 A                  
  3.236   3.304   3.304   3.479   3.479   3.494   3.494   3.495
161 A   162 A   163 A   164 A   165 A   166 A   167 A   168 A                  
  3.577   3.577   3.582   3.785   3.785   3.852   3.855   3.873
169 A   170 A   171 A   172 A   173 A   174 A   175 A   176 A                  
  3.873   3.963   3.993   4.204   4.204   4.442   4.523
177 A   178 A   179 A   180 A   181 A   182 A   183 A                          
 
 Beta MOs, Restricted
 -- Occupied --                  
-261.37  -31.94  -27.43  -27.42  -27.42  -20.69  -20.69  -20.66
  1 A     2 A     3 A     4 A     5 A     6 A     7 A     8 A                  
-20.663 -20.663 -11.410 -11.410 -11.393 -11.393 -11.393  -4.122
  9 A    10 A    11 A    12 A    13 A    14 A    15 A    16 A                  
 -2.710  -2.699  -2.699  -1.536  -1.536  -1.508  -1.508  -1.508
 17 A    18 A    19 A    20 A    21 A    22 A    23 A    24 A                  
 -0.860  -0.829  -0.808  -0.806  -0.806  -0.727  -0.670  -0.670
 25 A    26 A    27 A    28 A    29 A    30 A    31 A    32 A                  
 -0.667  -0.667  -0.666  -0.644  -0.644  -0.634  -0.628  -0.628
 33 A    34 A    35 A    36 A    37 A    38 A    39 A    40 A                  
 -0.622  -0.622  -0.602  -0.600  -0.478  -0.478  -0.338  -0.338
 41 A    42 A    43 A    44 A    45 A    46 A    47 A    48 A                  
 -- Virtual --                   
  0.083   0.095   0.095   0.106   0.111   0.111   0.138   0.138
 49 A    50 A    51 A    52 A    53 A    54 A    55 A    56 A                  
  0.144   0.152   0.156   0.156   0.217   0.217   0.275   0.350
 57 A    58 A    59 A    60 A    61 A    62 A    63 A    64 A                  
  0.377   0.377   0.439   0.439   0.479   0.488   0.538   0.543
 65 A    66 A    67 A    68 A    69 A    70 A    71 A    72 A                  
  0.543   0.654   0.682   0.682   0.697   0.699   0.699   0.734
 73 A    74 A    75 A    76 A    77 A    78 A    79 A    80 A                  
  0.734   0.772   0.778   0.839   0.862   0.862   0.868   0.868
 81 A    82 A    83 A    84 A    85 A    86 A    87 A    88 A                  
  0.913   0.932   0.932   0.954   0.992   1.012   1.017   1.017
 89 A    90 A    91 A    92 A    93 A    94 A    95 A    96 A                  
  1.062   1.220   1.220   1.232   1.232   1.247   1.251   1.251
 97 A    98 A    99 A   100 A   101 A   102 A   103 A   104 A                  
  1.265   1.265   1.289   1.318   1.328   1.328   1.344   1.348
105 A   106 A   107 A   108 A   109 A   110 A   111 A   112 A                  
  1.348   1.387   1.387   1.408   1.408   1.450   1.455   1.490
113 A   114 A   115 A   116 A   117 A   118 A   119 A   120 A                  
  1.490   1.507   1.507   1.581   1.597   1.597   1.620   1.700
121 A   122 A   123 A   124 A   125 A   126 A   127 A   128 A                  
  1.700   1.717   1.717   1.757   1.812   1.848   1.848   1.966
129 A   130 A   131 A   132 A   133 A   134 A   135 A   136 A                  
  2.117   2.135   2.153   2.153   2.168   2.292   2.292   2.480
137 A   138 A   139 A   140 A   141 A   142 A   143 A   144 A                  
  2.514   2.514   2.837   2.898   2.920   2.920   2.922   2.922
145 A   146 A   147 A   148 A   149 A   150 A   151 A   152 A                  
  2.937   2.941   2.941   2.943   2.943   2.959   3.079   3.079
153 A   154 A   155 A   156 A   157 A   158 A   159 A   160 A                  
  3.236   3.304   3.304   3.479   3.479   3.494   3.494   3.495
161 A   162 A   163 A   164 A   165 A   166 A   167 A   168 A                  
  3.577   3.577   3.582   3.785   3.785   3.852   3.855   3.873
169 A   170 A   171 A   172 A   173 A   174 A   175 A   176 A                  
  3.873   3.963   3.993   4.204   4.204   4.442   4.523
177 A   178 A   179 A   180 A   181 A   182 A   183 A                          

 Occupation and symmetry of molecular orbitals

 Point group: C1 (1 irreducible representation).

                           A     All 
 -------------------------------------
 All molecular orbitals:
  - Alpha                  183   183 
  - Beta                   183   183 
 -------------------------------------
 Alpha orbitals:
  - Frozen occupied        19    19  
  - Active occupied        29    29  
  - Active virtual         135   135 
  - Frozen virtual         0     0   
 -------------------------------------
 Beta orbitals:
  - Frozen occupied        19    19  
  - Active occupied        29    29  
  - Active virtual         135   135 
  - Frozen virtual         0     0   
 -------------------------------------

 Import integrals:   CPU 0.01 s  wall 0.00 s

 Import integrals:   CPU 746.32 s  wall 52.51 s

 MP2 amplitudes:   CPU 10.34 s  wall 3.34 s

Running a double precision version
           CCSD T amplitudes will be solved using DIIS.

           Start     Size      MaxIter   EConv     TConv     
           3         7         200       1.00e-07  1.00e-05  
 ------------------------------------------------------------------------------
           Energy (a.u.)   Ediff      Tdiff       Comment
 ------------------------------------------------------------------------------
         -1828.14005046                           
     1   -1827.69530118   4.45e-01   8.21e-01     
     2   -1828.11192796   4.17e-01   1.63e-03     
     3   -1827.77439618   3.38e-01   1.40e-02     
     4   -1827.92883147   1.54e-01   8.66e-01     Switched to DIIS steps.
     5   -1827.94800905   1.92e-02   8.86e-02     
     6   -1827.96534874   1.73e-02   4.59e-03     
     7   -1827.96171856   3.63e-03   3.42e-02     
     8   -1827.96143378   2.85e-04   1.12e-02     
     9   -1827.96087500   5.59e-04   9.71e-04     
    10   -1827.96164242   7.67e-04   3.57e-03     
    11   -1827.96154197   1.00e-04   8.66e-04     
    12   -1827.96153823   3.74e-06   1.33e-04     
    13   -1827.96153973   1.51e-06   9.34e-05     
    14   -1827.96154096   1.22e-06   3.87e-05     
    15   -1827.96153774   3.22e-06   2.03e-05     
    16   -1827.96154034   2.60e-06   1.12e-05     
    17   -1827.96154048   1.35e-07   8.10e-06     
    18   -1827.96153990   5.78e-07   1.71e-06     
    19   -1827.96154088   9.84e-07   2.31e-06     
    20   -1827.96154098   1.01e-07   1.74e-06     
    21   -1827.96154102   3.37e-08   6.91e-07     
 ------------------------------------------------------------------------------
         -1827.96154102                           CCSD T converged.

End of double precision
 SCF energy                 = -1825.99803492
 MP2 energy                 = -1828.14005046
 CCSD correlation energy    =    -1.96350610
 CCSD total energy          = -1827.96154102

 CCSD  T1^2 = 0.2032  T2^2 = 0.6934  Leading amplitudes:

 Amplitude    Orbitals with energies
 -0.1353       46 (A) A                  ->    50 (A) A                   
              -0.4782                          0.0949                     
 -0.1353       46 (A) B                  ->    50 (A) B                   
              -0.4782                          0.0949                     
 -0.1353       45 (A) A                  ->    51 (A) A                   
              -0.4782                          0.0949                     
 -0.1353       45 (A) B                  ->    51 (A) B                   
              -0.4782                          0.0949                     
  0.1328       44 (A) A                  ->    63 (A) A                   
              -0.5999                          0.2745                     
  0.1328       44 (A) B                  ->    63 (A) B                   
              -0.5999                          0.2745                     

 Amplitude    Orbitals with energies
 -0.0604       46 (A) A      46 (A) B    ->    50 (A) A      50 (A) B     
              -0.4782       -0.4782            0.0949        0.0949       
  0.0604       46 (A) A      46 (A) B    ->    50 (A) B      50 (A) A     
              -0.4782       -0.4782            0.0949        0.0949       
  0.0604       46 (A) B      46 (A) A    ->    50 (A) A      50 (A) B     
              -0.4782       -0.4782            0.0949        0.0949       
 -0.0604       46 (A) B      46 (A) A    ->    50 (A) B      50 (A) A     
              -0.4782       -0.4782            0.0949        0.0949       
 -0.0604       45 (A) A      45 (A) B    ->    51 (A) A      51 (A) B     
              -0.4782       -0.4782            0.0949        0.0949       
  0.0604       45 (A) A      45 (A) B    ->    51 (A) B      51 (A) A     
              -0.4782       -0.4782            0.0949        0.0949       
  0.0604       45 (A) B      45 (A) A    ->    51 (A) A      51 (A) B     
              -0.4782       -0.4782            0.0949        0.0949       
 -0.0604       45 (A) B      45 (A) A    ->    51 (A) B      51 (A) A     
              -0.4782       -0.4782            0.0949        0.0949       

 Computing CCSD intermediates for later calculations in double precision
 Finished.

Running a double precision version
           CCSD Lambda amplitudes will be solved using DIIS.
           Start     Size      MaxIter   EConv     LConv     
           3         7         200       1.00e-07  1.00e-05  
 ------------------------------------------------------------------------------
            Enorm      Ldiff       Comment
 ------------------------------------------------------------------------------
     1     1.84e-01   7.26e-02     
     2     1.31e-01   4.82e-02     
     3     1.41e-01   3.09e-02     
     4     2.06e-02   2.71e-02     Switched to DIIS steps.
     5     1.18e-02   2.98e-03     
     6     5.06e-03   4.27e-03     
     7     2.86e-03   1.30e-03     
     8     1.11e-03   9.83e-04     
     9     5.16e-04   2.50e-04     
    10     2.49e-04   7.40e-05     
    11     1.01e-04   3.95e-05     
    12     5.87e-05   2.22e-06     
    13     3.06e-05   5.35e-06     
    14     1.98e-05   4.13e-06     
    15     7.13e-06   6.17e-07     
    16     3.69e-06   2.46e-07     
    17     2.03e-06   4.72e-07     
    18     1.09e-06   2.59e-07     
    19     6.79e-07   2.13e-07     
    20     3.51e-07   1.28e-07     
    21     1.97e-07   9.65e-08     
    22     1.07e-07   3.89e-09     
    23     5.38e-08   2.63e-08     
 ------------------------------------------------------------------------------
                                   CCSD Lambda converged.

 Computing density matrices in double precision...
           Orbital response amplitudes will be solved using DIIS.
           Start     Size      MaxIter   EConv     LConv     
           3         7         200       1.00e-06  1.00e-06  
 ------------------------------------------------------------------------------
            Enorm      Ldiff       Comment
 ------------------------------------------------------------------------------
     1     3.00e-01   6.44e-02     
     2     6.59e-01   2.98e-01     
     3     3.16e+00   2.17e+00     
     4     1.81e-01   2.50e+00     Switched to DIIS steps.
     5     1.66e-02   5.86e-02     
     6     3.44e-03   5.23e-03     
     7     2.82e-03   1.07e-03     
     8     2.38e-03   5.17e-04     
     9     6.73e-04   7.43e-04     
    10     4.21e-05   1.94e-04     
    11     3.47e-05   1.05e-05     
    12     9.45e-06   4.96e-06     
    13     5.81e-06   4.09e-06     
    14     1.36e-06   2.01e-06     
    15     6.90e-07   1.52e-07     
 ------------------------------------------------------------------------------
                                   Orbital response converged.

 Computing density matrices... Done.
 CCSD calculation:   CPU 29573.63 s  wall 2104.85 s

 Transferring MO TPDM to AO TPDM
 Transferring g2_o1o1o1o1
 Transferring g2_o1o1o1v1
 Transferring g2_o1o1v1v1
 Transferring g2_o1v1o1v1
 Transferring g2_o1v1v1v1
 Transferring g2_v1v1v1v1
 Adding separable TPDM
 Computing TPDM gradient
 --------------------------------------------------------
 2e gradient
  Atom          X               Y               Z
 --------------------------------------------------------
    1         -0.000000       -0.000017        0.000000  
    2          0.000000        0.000005        5.136185  
    3          3.173913       -0.000004        0.000000  
    4         -1.586950       -2.748682       -0.000000  
    5         -1.586963        2.748697       -0.000000  
    6          0.000000        0.000005       -5.136185  
    7         -0.000000       -0.000000      -36.251679  
    8         -0.000000       -0.000000       36.251679  
    9        -35.651829        0.000001        0.000000  
   10         17.825913       30.875388        0.000000  
   11         17.825916      -30.875392        0.000000  
 --------------------------------------------------------
 --------------------------------------------------------
 Final gradient
  Atom          X               Y               Z
 --------------------------------------------------------
    1         -0.000000       -0.000017        0.000000  
    2          0.000000        0.000005        5.136185  
    3          3.173913       -0.000004        0.000000  
    4         -1.586950       -2.748682       -0.000000  
    5         -1.586963        2.748697       -0.000000  
    6          0.000000        0.000005       -5.136185  
    7         -0.000000       -0.000000      -36.251679  
    8         -0.000000       -0.000000       36.251679  
    9        -35.651829        0.000001        0.000000  
   10         17.825913       30.875388        0.000000  
   11         17.825916      -30.875392        0.000000  
 --------------------------------------------------------
 Analytic gradient from two-electron contribution:   CPU 6056.61 s  wall 281.24 s

 Total ccman2 time:   CPU 36903.20 s  wall 2459.14 s

 
 --------------------------------------------------------------
 
                    Orbital Energies (a.u.)
 --------------------------------------------------------------
 
 Alpha MOs
 -- Occupied --
******** -31.9419 -27.4278 -27.4177 -27.4177 -20.6906 -20.6906 -20.6630
-20.6630 -20.6630 -11.4103 -11.4103 -11.3926 -11.3926 -11.3926  -4.1219
 -2.7105  -2.6986  -2.6986  -1.5359  -1.5358  -1.5084  -1.5082  -1.5082
 -0.8601  -0.8286  -0.8077  -0.8061  -0.8061  -0.7274  -0.6704  -0.6704
 -0.6668  -0.6668  -0.6663  -0.6436  -0.6436  -0.6336  -0.6280  -0.6280
 -0.6217  -0.6217  -0.6016  -0.5999  -0.4782  -0.4782  -0.3383  -0.3383
 -- Virtual --
  0.0829   0.0949   0.0949   0.1058   0.1113   0.1113   0.1379   0.1379
  0.1437   0.1517   0.1564   0.1564   0.2167   0.2167   0.2745   0.3500
  0.3768   0.3768   0.4386   0.4386   0.4788   0.4877   0.5380   0.5431
  0.5431   0.6540   0.6817   0.6817   0.6968   0.6990   0.6990   0.7342
  0.7342   0.7718   0.7777   0.8390   0.8616   0.8616   0.8683   0.8683
  0.9128   0.9317   0.9317   0.9540   0.9917   1.0118   1.0166   1.0166
  1.0620   1.2195   1.2195   1.2323   1.2323   1.2467   1.2511   1.2511
  1.2650   1.2650   1.2889   1.3179   1.3279   1.3279   1.3443   1.3484
  1.3484   1.3874   1.3874   1.4084   1.4084   1.4498   1.4545   1.4904
  1.4904   1.5073   1.5073   1.5810   1.5966   1.5966   1.6197   1.7000
  1.7000   1.7171   1.7171   1.7571   1.8118   1.8475   1.8475   1.9658
  2.1174   2.1346   2.1529   2.1529   2.1678   2.2917   2.2917   2.4796
  2.5137   2.5137   2.8372   2.8977   2.9201   2.9201   2.9220   2.9220
  2.9372   2.9413   2.9413   2.9428   2.9428   2.9586   3.0788   3.0788
  3.2363   3.3039   3.3039   3.4791   3.4791   3.4937   3.4937   3.4950
  3.5775   3.5775   3.5816   3.7847   3.7847   3.8517   3.8554   3.8733
  3.8733   3.9631   3.9929   4.2040   4.2040   4.4417   4.5234
 --------------------------------------------------------------
 
          Ground-State Mulliken Net Atomic Charges

     Atom                 Charge (a.u.)
  ----------------------------------------
      1 Fe                   -0.528418
      2 C                     0.120184
      3 C                     0.145294
      4 C                     0.145294
      5 C                     0.145293
      6 C                     0.120184
      7 O                    -0.018844
      8 O                    -0.018844
      9 O                    -0.036714
     10 O                    -0.036714
     11 O                    -0.036714
  ----------------------------------------
  Sum of atomic charges =     0.000000

 -----------------------------------------------------------------
                    Cartesian Multipole Moments
 -----------------------------------------------------------------
    Charge (ESU x 10^10)
                 0.0000
    Dipole Moment (Debye)
         X      -0.0000      Y      -0.0000      Z      -0.0000
       Tot       0.0000
    Quadrupole Moments (Debye-Ang)
        XX     -71.6362     XY       0.0000     YY     -71.6362
        XZ       0.0000     YZ       0.0000     ZZ     -68.1218
    Octopole Moments (Debye-Ang^2)
       XXX      -8.7979    XXY      -0.0000    XYY       8.7979
       YYY      -0.0001    XXZ      -0.0000    XYZ       0.0000
       YYZ       0.0000    XZZ      -0.0000    YZZ      -0.0000
       ZZZ      -0.0000
    Hexadecapole Moments (Debye-Ang^3)
      XXXX    -688.4637   XXXY       0.0001   XXYY    -229.4879
      XYYY       0.0001   YYYY    -688.4637   XXXZ       0.0000
      XXYZ      -0.0000   XYYZ      -0.0000   YYYZ      -0.0000
      XXZZ    -236.3417   XYZZ       0.0000   YYZZ    -236.3417
      XZZZ       0.0000   YZZZ       0.0000   ZZZZ    -895.2216
 -----------------------------------------------------------------
 DrvMan completing analytic gradient of the correlated energy
 Correlated dipole moment
            1
    1  -0.0000000
    2  -0.0000036
    3  -0.0000000
 Energy read as -1827.961541018
 Full Analytical Gradient: (in a.u., or Hartree/Bohr)
             1             2             3             4             5
    1    0.00000000   -0.00000000    0.00017513   -0.00008767   -0.00008747
    2    0.00000019   -0.00000008    0.00000003   -0.00015182    0.00015152
    3    0.00000000   -0.00018374   -0.00000000    0.00000000    0.00000000
             6             7             8             9            10
    1   -0.00000000    0.00000000    0.00000000    0.00006160   -0.00003072
    2   -0.00000008    0.00000002    0.00000002   -0.00000002   -0.00005324
    3    0.00018374   -0.00003357    0.00003357    0.00000000   -0.00000000
            11
    1   -0.00003088
    2    0.00005346
    3   -0.00000000
 Gradient time:  CPU 24.52 s  wall 26.62 s
 Geometry Optimization Parameters
   NAtoms,    NIC,     NZ,  NCons,   NDum,   NFix, NCnnct, MaxDiis
       11      67      11       0       0       1       0       0
**WARNING** Cannot use Internal Coordinates with Fixed Atoms
  Cartesian Optimization Enforced


** GEOMETRY OPTIMIZATION IN CARTESIAN COORDINATES **
   Searching for a Minimum

   Optimization Cycle:   1

                       Coordinates (Angstroms)
     ATOM                X               Y               Z
      1  Fe        0.0000000000    0.0000000000    0.0000000000
      2  C         0.0000000000    0.0000000000    1.8501400000
      3  C         1.8328100000    0.0000000000    0.0000000000
      4  C        -0.9164050000   -1.5872600203    0.0000000000
      5  C        -0.9164050000    1.5872600203    0.0000000000
      6  C         0.0000000000    0.0000000000   -1.8501400000
      7  O         0.0000000000    0.0000000000    2.9943600000
      8  O         0.0000000000    0.0000000000   -2.9943600000
      9  O         2.9819800000    0.0000000000    0.0000000000
     10  O        -1.4909900000   -2.5824704336    0.0000000000
     11  O        -1.4909900000    2.5824704336    0.0000000000
   Point Group: c1    Number of degrees of freedom:    27


   Energy is  -1827.961541018

            Atoms with "Fixed" Coordinates
                Atom    Coordinates
                     1        X  Y  Z

 20 Hessian modes will be used to form the next step
  Hessian Eigenvalues:
     1.000000    1.000000    1.000000    1.000000    1.000000    1.000000
     1.000000    1.000000    1.000000    1.000000    1.000000    1.000000
     1.000000    1.000000    1.000000    1.000000    1.000000    1.000000
     1.000000    1.000000

 Minimum search - taking simple RFO step
 Searching for Lamda that Minimizes Along All modes
 Value Taken    Lamda =  -0.00000017
 Step Taken.  Stepsize is  0.000416

                             Maximum     Tolerance    Cnvgd?
         Gradient           0.000184      0.000300     YES
         Displacement       0.000184      0.001200     YES
         Energy change     *********      0.000001      NO


                       Distance Matrix (Angstroms)
             Fe(  1)   C (  2)   C (  3)   C (  4)   C (  5)   C (  6)
   C (  2)  1.850140
   C (  3)  1.832810  2.604268
   C (  4)  1.832810  2.604268  3.174520
   C (  5)  1.832810  2.604268  3.174520  3.174520
   C (  6)  1.850140  3.700280  2.604268  2.604268  2.604268
   O (  7)  2.994360  1.144220  3.510753  3.510753  3.510753  4.844500
   O (  8)  2.994360  4.844500  3.510753  3.510753  3.510753  1.144220
   O (  9)  2.981980  3.509305  1.149170  4.209133  4.209133  3.509305
   O ( 10)  2.981980  3.509305  4.209133  1.149170  4.209133  3.509305
   O ( 11)  2.981980  3.509305  4.209133  4.209133  1.149170  3.509305
             O (  7)   O (  8)   O (  9)   O ( 10)
   O (  8)  5.988720
   O (  9)  4.225920  4.225920
   O ( 10)  4.225920  4.225920  5.164941
   O ( 11)  4.225920  4.225920  5.164941  5.164941
 
 Final energy is   -1827.96154101766     


 ******************************
 **  OPTIMIZATION CONVERGED  **
 ******************************

                       Coordinates (Angstroms)
     ATOM                X               Y               Z
      1  Fe        0.0000000000    0.0000000000    0.0000000000
      2  C         0.0000000000    0.0000000000    1.8501400000
      3  C         1.8328100000    0.0000000000    0.0000000000
      4  C        -0.9164050000   -1.5872600203    0.0000000000
      5  C        -0.9164050000    1.5872600203    0.0000000000
      6  C         0.0000000000    0.0000000000   -1.8501400000
      7  O         0.0000000000    0.0000000000    2.9943600000
      8  O         0.0000000000    0.0000000000   -2.9943600000
      9  O         2.9819800000    0.0000000000    0.0000000000
     10  O        -1.4909900000   -2.5824704336    0.0000000000
     11  O        -1.4909900000    2.5824704336    0.0000000000

Z-matrix Print:
$molecule
0 1
Fe
C  1 1.832810
O  2 1.149170 1 180.000000
C  1 1.832810 2 120.000000 3 0.000000 0
O  4 1.149170 1 180.000000 1 0.000000 0
C  1 1.832810 2 120.000000 1 0.000000 0
O  6 1.149170 1 180.000000 1 0.000000 0
C  1 1.850140 2 90.000000 1 0.000000 0
O  8 1.144220 1 180.000000 1 0.000000 0
C  1 1.850140 2 90.000000 1 0.000000 0
O  10 1.144220 1 180.000000 1 0.000000 0
$end

 
 --------------------------------------------------------------
 
                    Orbital Energies (a.u.)
 --------------------------------------------------------------
 
 Alpha MOs
 -- Occupied --
******** -31.9419 -27.4278 -27.4177 -27.4177 -20.6906 -20.6906 -20.6630
-20.6630 -20.6630 -11.4103 -11.4103 -11.3926 -11.3926 -11.3926  -4.1219
 -2.7105  -2.6986  -2.6986  -1.5359  -1.5358  -1.5084  -1.5082  -1.5082
 -0.8601  -0.8286  -0.8077  -0.8061  -0.8061  -0.7274  -0.6704  -0.6704
 -0.6668  -0.6668  -0.6663  -0.6436  -0.6436  -0.6336  -0.6280  -0.6280
 -0.6217  -0.6217  -0.6016  -0.5999  -0.4782  -0.4782  -0.3383  -0.3383
 -- Virtual --
  0.0829   0.0949   0.0949   0.1058   0.1113   0.1113   0.1379   0.1379
  0.1437   0.1517   0.1564   0.1564   0.2167   0.2167   0.2745   0.3500
  0.3768   0.3768   0.4386   0.4386   0.4788   0.4877   0.5380   0.5431
  0.5431   0.6540   0.6817   0.6817   0.6968   0.6990   0.6990   0.7342
  0.7342   0.7718   0.7777   0.8390   0.8616   0.8616   0.8683   0.8683
  0.9128   0.9317   0.9317   0.9540   0.9917   1.0118   1.0166   1.0166
  1.0620   1.2195   1.2195   1.2323   1.2323   1.2467   1.2511   1.2511
  1.2650   1.2650   1.2889   1.3179   1.3279   1.3279   1.3443   1.3484
  1.3484   1.3874   1.3874   1.4084   1.4084   1.4498   1.4545   1.4904
  1.4904   1.5073   1.5073   1.5810   1.5966   1.5966   1.6197   1.7000
  1.7000   1.7171   1.7171   1.7571   1.8118   1.8475   1.8475   1.9658
  2.1174   2.1346   2.1529   2.1529   2.1678   2.2917   2.2917   2.4796
  2.5137   2.5137   2.8372   2.8977   2.9201   2.9201   2.9220   2.9220
  2.9372   2.9413   2.9413   2.9428   2.9428   2.9586   3.0788   3.0788
  3.2363   3.3039   3.3039   3.4791   3.4791   3.4937   3.4937   3.4950
  3.5775   3.5775   3.5816   3.7847   3.7847   3.8517   3.8554   3.8733
  3.8733   3.9631   3.9929   4.2040   4.2040   4.4417   4.5234
 --------------------------------------------------------------
 
          Ground-State Mulliken Net Atomic Charges

     Atom                 Charge (a.u.)
  ----------------------------------------
      1 Fe                   -0.528418
      2 C                     0.120184
      3 C                     0.145294
      4 C                     0.145294
      5 C                     0.145293
      6 C                     0.120184
      7 O                    -0.018844
      8 O                    -0.018844
      9 O                    -0.036714
     10 O                    -0.036714
     11 O                    -0.036714
  ----------------------------------------
  Sum of atomic charges =     0.000000

 -----------------------------------------------------------------
                    Cartesian Multipole Moments
 -----------------------------------------------------------------
    Charge (ESU x 10^10)
                 0.0000
    Dipole Moment (Debye)
         X      -0.0000      Y      -0.0000      Z      -0.0000
       Tot       0.0000
    Quadrupole Moments (Debye-Ang)
        XX     -71.6362     XY       0.0000     YY     -71.6362
        XZ       0.0000     YZ       0.0000     ZZ     -68.1218
    Octopole Moments (Debye-Ang^2)
       XXX      -8.7979    XXY      -0.0000    XYY       8.7979
       YYY      -0.0001    XXZ      -0.0000    XYZ       0.0000
       YYZ       0.0000    XZZ      -0.0000    YZZ      -0.0000
       ZZZ      -0.0000
    Hexadecapole Moments (Debye-Ang^3)
      XXXX    -688.4637   XXXY       0.0001   XXYY    -229.4879
      XYYY       0.0001   YYYY    -688.4637   XXXZ       0.0000
      XXYZ      -0.0000   XYYZ      -0.0000   YYYZ      -0.0000
      XXZZ    -236.3417   XYZZ       0.0000   YYZZ    -236.3417
      XZZZ       0.0000   YZZZ       0.0000   ZZZZ    -895.2216
 -----------------------------------------------------------------
 Total job time:  2516.91s(wall), 37580.50s(cpu) 
 Mon Jan 15 04:52:44 2024

        *************************************************************
        *                                                           *
        *  Thank you very much for using Q-Chem.  Have a nice day.  *
        *                                                           *
        *************************************************************


