                  Welcome to Q-Chem
     A Quantum Leap Into The Future Of Chemistry


 Q-Chem 6.1 (devel), Q-Chem, Inc., Pleasanton, CA (2022)

 E. Epifanovsky,  A. T. B. Gilbert,  Xintian Feng,  Joonho Lee,  Yuezhi Mao,  
 N. Mardirossian,  P. Pokhilko,  A. White,  M. Wormit,  M. P. Coons,  
 A. L. Dempwolff,  Zhengting Gan,  D. Hait,  P. R. Horn,  L. D. Jacobson,  
 I. Kaliman,  J. Kussmann,  A. W. Lange,  Ka Un Lao,  D. S. Levine,  Jie Liu,  
 S. C. McKenzie,  A. F. Morrison,  K. D. Nanda,  F. Plasser,  D. R. Rehn,  
 M. L. Vidal,  Zhi-Qiang You,  Ying Zhu,  B. Alam,  B. Albrecht,  
 A. Aldossary,  E. Alguire,  J. H. Andersen,  V. Athavale,  D. Barton,  
 K. Begam,  A. Behn,  N. Bellonzi,  Y. A. Bernard,  E. J. Berquist,  
 H. Burton,  A. Carreras,  K. Carter-Fenk,  Mathew Chow,  Romit Chakraborty,  
 Chandrima Chakravarty,  Junhan Chen,  A. D. Chien,  K. D. Closser,  
 V. Cofer-Shabica,  L. Cunha,  S. Dasgupta,  Jia Deng,  M. de Wergifosse,  
 M. Diedenhofen,  Hainam Do,  S. Ehlert,  Po-Tung Fang,  S. Fatehi,  
 Qingguo Feng,  T. Friedhoff,  Thomas Froitzheim,  B. Ganoe,  J. Gayvert,  
 Qinghui Ge,  G. Gidofalvi,  M. Gimferrer,  M. Goldey,  Montgomery Gray,  
 J. Gomes,  C. Gonzalez-Espinoza,  S. Gulania,  A. Gunina,  J. A. Gyamfi,  
 M. W. D. Hanson-Heine,  P. H. P. Harbach,  A. W. Hauser,  M. F. Herbst,  
 M. Hernandez Vera,  M. Hodecker,  Z. C. Holden,  S. Houck,  Xunkun Huang,  
 Kerwin Hui,  B. C. Huynh,  K. Ikeda,  M. Ivanov,  Hyunjun Ji,  Zuxin Jin,  
 Hanjie Jiang,  Subrata Jana,  B. Kaduk,  S. Kaehler,  R. Kang,  
 K. Khistyaev,  Jaehoon Kim,  Yongbin Kim,  P. Klunzinger,  Z. Koczor-Benda,  
 Joong Hoon Koh,  D. Kosenkov,  Saikiran Kotaru,  L. Koulias,  T. Kowalczyk,  
 C. M. Krauter,  K. Kue,  A. Kunitsa,  T. Kus,  A. Landau,  K. V. Lawler,  
 D. Lefrancois,  S. Lehtola,  Rain Li,  Shaozhi Li,  Yi-Pei Li,  
 Jiashu Liang,  M. Liebenthal,  Hung-Hsuan Lin,  You-Sheng Lin,  Fenglai Liu,  
 Kuan-Yu Liu,  Xiao Liu,  M. Loipersberger,  A. Luenser,  C. Malbon,  
 A. Manjanath,  P. Manohar,  E. Mansoor,  S. F. Manzer,  Shan-Ping Mao,  
 A. V. Marenich,  T. Markovich,  S. Mason,  F. Matz,  S. A. Maurer,  
 P. F. McLaughlin,  M. F. S. J. Menger,  J.-M. Mewes,  S. A. Mewes,  
 P. Morgante,  Mohammad Mostafanejad,  J. W. Mullinax,  K. J. Oosterbaan,  
 G. Paran,  V. Parravicini,  Alexander C. Paul,  Suranjan K. Paul,  
 F. Pavosevic,  Zheng Pei,  S. Prager,  E. I. Proynov,  E. Ramos,  B. Rana,  
 A. E. Rask,  A. Rettig,  R. M. Richard,  F. Rob,  E. Rossomme,  T. Scheele,  
 M. Scheurer,  M. Schneider,  P. E. Schneider,  Tim K. Schramm,  N. Sergueev,  
 S. M. Sharada,  M. Sharma,  Hengyuan Shen,  W. Skomorowski,  D. W. Small,  
 C. J. Stein,  Alistair J. Sterling,  Yingli Su,  Yu-Chuan Su,  
 E. J. Sundstrom,  J. Talbot,  Zhen Tao,  J. Thirman,  Hung-Yi Tsai,  
 T. Tsuchimochi,  N. M. Tubman,  C. Utku,  S. P. Veccham,  O. Vydrov,  
 J. Wenzel,  Jonathan Wong,  J. Witte,  A. Yamada,  Chou-Hsun Yang,  Kun Yao,  
 S. Yeganeh,  S. R. Yost,  A. Zech,  F. Zeller,  Igor Ying Zhang,  
 Xing Zhang,  Yu Zhang,  D. Zuev,  A. Aspuru-Guzik,  A. T. Bell,  
 N. A. Besley,  K. B. Bravaya,  B. R. Brooks,  D. Casanova,  Jeng-Da Chai,  
 Hsing-Ta Chen,  S. Coriani,  C. J. Cramer,  A. E. DePrince, III,  
 R. A. DiStasio Jr.,  A. Dreuw,  B. D. Dunietz,  T. R. Furlani,  
 W. A. Goddard III,  S. Grimme,  S. Hammes-Schiffer,  T. Head-Gordon,  
 W. J. Hehre,  Chao-Ping Hsu,  T.-C. Jagau,  Yousung Jung,  A. Klamt,  
 Jing Kong,  D. S. Lambrecht,  Xiangyuan Li,  WanZhen Liang,  N. J. Mayhall,  
 C. W. McCurdy,  J. B. Neaton,  T. Neudecker,  C. Ochsenfeld,  
 J. A. Parkhill,  R. Peverati,  V. A. Rassolov,  Haisheng Ren,  Yihan Shao,  
 L. V. Slipchenko,  R. P. Steele,  J. E. Subotnik,  A. J. W. Thom,  
 A. Tkatchenko,  D. G. Truhlar,  T. Van Voorhis,  Fan Wang,  
 T. A. Wesolowski,  K. B. Whaley,  H. L. Woodcock III,  P. M. Zimmerman,  
 S. Faraji,  P. M. W. Gill,  M. Head-Gordon,  J. M. Herbert,  A. I. Krylov

 Contributors to earlier versions of Q-Chem not listed above: 
 R. D. Adamson,  B. Austin,  R. Baer,  J. Baker,  G. J. O. Beran,  
 K. Brandhorst,  S. T. Brown,  E. F. C. Byrd,  Arup K. Chakraborty,  
 G. K. L. Chan,  Chun-Min Chang,  Yunqing Chen,  C.-L. Cheng,  
 Siu Hung Chien,  D. M. Chipman,  D. L. Crittenden,  H. Dachsel,  
 R. J. Doerksen,  A. D. Dutoi,  R. G. Edgar,  J. Fosso-Tande,  
 L. Fusti-Molnar,  D. Ghosh,  A. Ghysels,  A. Golubeva-Zadorozhnaya,  
 J. Gonthier,  M. S. Gordon,  S. R. Gwaltney,  G. Hawkins,  J. E. Herr,  
 A. Heyden,  S. Hirata,  E. G. Hohenstein,  G. Kedziora,  F. J. Keil,  
 C. Kelley,  Jihan Kim,  R. A. King,  R. Z. Khaliullin,  P. P. Korambath,  
 W. Kurlancheek,  A. Laurent,  A. M. Lee,  M. S. Lee,  S. V. Levchenko,  
 Ching Yeh Lin,  D. Liotard,  E. Livshits,  R. C. Lochan,  I. Lotan,  
 L. A. Martinez-Martinez,  P. E. Maslen,  N. Nair,  D. P. O'Neill,  
 D. Neuhauser,  E. Neuscamman,  C. M. Oana,  R. Olivares-Amaya,  R. Olson,  
 T. M. Perrine,  B. Peters,  P. A. Pieniazek,  A. Prociuk,  Y. M. Rhee,  
 J. Ritchie,  M. A. Rohrdanz,  E. Rosta,  N. J. Russ,  H. F. Schaefer III,  
 M. W. Schmidt,  N. E. Schultz,  S. Sharma,  N. Shenvi,  C. D. Sherrill,  
 A. C. Simmonett,  A. Sodt,  T. Stein,  D. Stuck,  K. S. Thanthiriwatte,  
 V. Vanovschi,  L. Vogt,  Tao Wang,  A. Warshel,  M. A. Watson,  
 C. F. Williams,  Q. Wu,  X. Xu,  Jun Yang,  W. Zhang,  Yan Zhao

   Please cite Q-Chem as follows:
  "Software for the frontiers of quantum chemistry:
   An overview of developments in the Q-Chem 5 package"
   J. Chem. Phys. 155, 084801 (2021)
   https://doi.org/10.1063/5.0055522 (open access)

 Q-Chem 6.1.0 for Intel X86 EM64T Linux

 Parts of Q-Chem use Armadillo 9.900.5 (Nocturnal Misbehaviour).
 http://arma.sourceforge.net/

 Q-Chem begins on Mon Jan 15 05:12:10 2024  

 Host: n0071.mhg0
0

     Scratch files written to /local/scratch/users/juanes/O-CCSD_FeCO3-Cs-S0.in20240115051207//
 Processing $rem in /global/home/groups-sw/mhg/qchem_public/qchem_6101/config/preferences:
 Processing $rem in /global/home/users/juanes/.qchemrc:

 Checking the input file for inconsistencies... 	...done.

--------------------------------------------------------------
User input:
--------------------------------------------------------------
$comment
  Plain old SCF on the ground state.
$end

$molecule
  0   1
  Fe
  C   1   rFeC_Legs
  C   1   rFeC_Legs  2  a_CC_Legs
  C   1   rFeC_Head  2  a_CC_LH     3 d_4123
  O   2   rCO_Legs   1  a_COFe_Legs 4 d_0
  O   3   rCO_Legs   1  a_COFe_Legs 4 d_0
  O   4   rCO_Head   1  a_COFe_Head 2 d_7412

  rFeC_Legs   =   1.87824
  rCO_Legs    =   1.15043
  rFeC_Head   =   1.78593
  rCO_Head    =   1.15509
  a_CC_Legs   = 145.22755
  a_CC_LH     =  89.07400
  a_COFe_Legs = 174.11873
  a_COFe_Head = 178.60155
  d_7412      = 134.26100
  d_4123      = -87.04100
  d_0         =   0.00000
$end

$rem
  METHOD               HF
  UNRESTRICTED         FALSE
  BASIS                GEN
  PURECART             11
  SYMMETRY             FALSE
  SYM_IGNORE           TRUE
  GEN_SCFMAN           TRUE
  SCF_ALGORITHM        DIIS_GDM
  SCF_CONVERGENCE      8
  MAX_SCF_CYCLES       200
  INTERNAL_STABILITY   TRUE
  INTERNAL_STABILITY_ITER 10
  INTERNAL_STABILITY_DAVIDSON_ITER 250
  MEM_TOTAL            32000
  MEM_STATIC           1000
  THRESH               14
$end

$basis
C    0
cc-pVDZ
****
O    0
cc-pVDZ
****
Fe    0
cc-pVDZ
****
$end

--------------------------------------------------------------
 ----------------------------------------------------------------
             Standard Nuclear Orientation (Angstroms)
    I     Atom           X                Y                Z
 ----------------------------------------------------------------
    1      Fe      0.0000000000     0.0000000000     0.0000000000
    2      C       0.0000000000     0.0000000000     1.8782400000
    3      C       1.0711953234     0.0000000000    -1.5428305405
    4      C       0.0921800571     1.7833159446     0.0288624956
    5      O       0.0060852023     0.1177243602     3.0226145585
    6      O       1.7288519986     0.1177243615    -2.4793762453
    7      O       0.1719601657     2.9356470697     0.0278522897
 ----------------------------------------------------------------
 Nuclear Repulsion Energy =         393.34866297 hartrees
 There are       34 alpha and       34 beta electrons
 Requested basis set is non-standard
 There are 51 shells and 127 basis functions

 Total QAlloc Memory Limit  32000 MB
 Mega-Array Size       978 MB
 MEM_STATIC part      1000 MB


                       Distance Matrix (Angstroms)
             Fe(  1)   C (  2)   C (  3)   C (  4)   O (  5)   O (  6)
   C (  2)  1.878240
   C (  3)  1.878240  3.584855
   C (  4)  1.785930  2.570780  2.570779
   O (  5)  3.024912  1.150430  4.689521  3.426975
   O (  6)  3.024912  4.689521  1.150430  3.426974  5.765399
   O (  7)  2.940811  3.474411  3.448723  1.155090  4.115435  4.080539

 
 A cutoff of  1.0D-14 yielded   1253 shell pairs
 There are      7973 function pairs (      9581 Cartesian)
 Smallest overlap matrix eigenvalue = 2.66E-04

 Scale SEOQF with 1.000000e-01/1.000000e-01/1.000000e-01

 Standard Electronic Orientation quadrupole field applied
 Nucleus-field energy     =    -0.0000000095 hartrees
 ================ Generating on-the-fly SAD Guess ================
 Attempting to make child job directory: /local/scratch/users/juanes/O-CCSD_FeCO3-Cs-S0.in20240115051207//Frg1/
 Attempting to make child job directory: /local/scratch/users/juanes/O-CCSD_FeCO3-Cs-S0.in20240115051207//Frg2/
 Attempting to make child job directory: /local/scratch/users/juanes/O-CCSD_FeCO3-Cs-S0.in20240115051207//Frg3/
 Creating input file /local/scratch/users/juanes/O-CCSD_FeCO3-Cs-S0.in20240115051207/Frg1.input
 using default PutDataFrgm: nothing
 calling putenv with: QCSCRATCH=/local/scratch/users/juanes/O-CCSD_FeCO3-Cs-S0.in20240115051207/ 
 Spawning Job For Fragment 0
 Done Job For Fragment 0
 calling putenv with: QCSCRATCH=/local/scratch/users/juanes 
 calling putenv with: QCTHREADS=32 
 Creating input file /local/scratch/users/juanes/O-CCSD_FeCO3-Cs-S0.in20240115051207/Frg2.input
 using default PutDataFrgm: nothing
 calling putenv with: QCSCRATCH=/local/scratch/users/juanes/O-CCSD_FeCO3-Cs-S0.in20240115051207/ 
 Spawning Job For Fragment 1
 Done Job For Fragment 1
 calling putenv with: QCSCRATCH=/local/scratch/users/juanes 
 calling putenv with: QCTHREADS=32 
 Creating input file /local/scratch/users/juanes/O-CCSD_FeCO3-Cs-S0.in20240115051207/Frg3.input
 using default PutDataFrgm: nothing
 calling putenv with: QCSCRATCH=/local/scratch/users/juanes/O-CCSD_FeCO3-Cs-S0.in20240115051207/ 
 Spawning Job For Fragment 2
 Done Job For Fragment 2
 calling putenv with: QCSCRATCH=/local/scratch/users/juanes 
 calling putenv with: QCTHREADS=32 
 Time for running child jobs:  CPU 5.25 s  wall 418.58 s
 ============= Method Specific SAD Guess Constructed =============
 Guess from on-the-fly superposition of atomic densities
 Warning: Energy on first SCF cycle will be non-variational

 -----------------------------------------------------------------------
  General SCF calculation program by
  Eric Jon Sundstrom, Paul Horn, Yuezhi Mao, Dmitri Zuev, Alec White,
  David Stuck, Shaama M.S., Shane Yost, Joonho Lee, David Small,
  Daniel Levine, Susi Lehtola, Hugh Burton, Evgeny Epifanovsky,
  Bang C. Huynh
 -----------------------------------------------------------------------
 Hartree-Fock
Running Object-Oriented RKS (RHF)
 using 32 threads for integral computing
 -------------------------------------------------------
 OpenMP Integral computing Module                
 Release: version 1.0, May 2013, Q-Chem Inc. Pittsburgh 
 -------------------------------------------------------
Printing hybrid method specification in gen_scfman_hybrid_algorithm
algorithm ALGO_ID will be run until the gradient/residual is below 1E-ALGO_CONV
or ALGO_ITER iterations have been performed
----------------------------------------------
  ALGO_ID        ALGO_CONV         ALGO_ITER
----------------------------------------------
  DIIS                    2           50
  GDM                     8           200
----------------------------------------------
We will preform up to 10 macro iterations over saddle points until a stable solution is found
Energy prior to optimization (guess energy) = -1600.141464482426
Begin Timing: Total SCF Calculation
Begin Timing: SCF Single Stationary Point Calculation
Begin Timing: Algorithm 1
begin iterations for algorithm: DIIS         
the SCF tolerance is set to 1.00e-02
    1   -1600.1414644824      1.29e-02     00000 
    2   -1599.7187810810      2.53e-02     00000 
    3   -1600.3939327169      4.65e-03     Intermediate Algorithm Converged
successfully completed hybrid algorithm stage: 1
Timing for Algorithm DIIS          : 20.00s (wall), 160.09s (cpu)
Begin Timing: Algorithm 2
begin iterations for algorithm: GDM          
the SCF tolerance is set to 1.00e-08
    1   -1600.3939327169      8.83e-02     00000  Normal BFGS step
    2   -1600.3233095563      2.30e-01     00000 Line search: overstep
    3   -1600.4191175224      3.73e-02     00000  Normal BFGS step
    4   -1600.4319350999      2.59e-02     00000  Normal BFGS step
    5   -1600.4370421497      1.75e-02     00000  Normal BFGS step
    6   -1600.4381273980      6.65e-03     00000  Normal BFGS step
    7   -1600.4388190852      7.57e-03     00000  Normal BFGS step
    8   -1600.4394138742      6.27e-03     00000  Normal BFGS step
    9   -1600.4399357245      7.21e-03     00000  Normal BFGS step
   10   -1600.4404346882      5.29e-03     00000  Normal BFGS step
   11   -1600.4409513731      8.36e-03     00000  Normal BFGS step
   12   -1600.4415954883      8.23e-03     00000  Normal BFGS step
   13   -1600.4423012073      5.18e-03     00000  Normal BFGS step
   14   -1600.4428372166      4.89e-03     00000  Normal BFGS step
   15   -1600.4431283205      4.94e-03     00000  Normal BFGS step
   16   -1600.4433349008      5.03e-03     00000  Normal BFGS step
   17   -1600.4434788168      3.19e-03     00000  Normal BFGS step
   18   -1600.4436336582      3.87e-03     00000  Normal BFGS step
   19   -1600.4437895739      5.16e-03     00000  Normal BFGS step
   20   -1600.4439572904      6.18e-03     00000  Normal BFGS step
   21   -1600.4441752981      5.51e-03     00000  Normal BFGS step
   22   -1600.4444319115      3.94e-03     00000  Normal BFGS step
   23   -1600.4447815314      4.02e-03     00000  Normal BFGS step
   24   -1600.4450655553      4.61e-03     00000  Normal BFGS step
   25   -1600.4452559769      3.51e-03     00000  Normal BFGS step
   26   -1600.4452716022      4.32e-03     00000  Normal BFGS step
   27   -1600.4455108334      3.32e-03     00000  Normal BFGS step
   28   -1600.4456430005      1.87e-03     00000  Normal BFGS step
   29   -1600.4457438589      1.67e-03     00000  Normal BFGS step
   30   -1600.4458409845      1.60e-03     00000  Normal BFGS step
   31   -1600.4459558264      1.76e-03     00000  Normal BFGS step
   32   -1600.4460632459      1.56e-03     00000  Normal BFGS step
   33   -1600.4461426248      1.58e-03     00000  Normal BFGS step
   34   -1600.4462102428      1.62e-03     00000  Normal BFGS step
   35   -1600.4462571055      1.60e-03     00000  Normal BFGS step
   36   -1600.4462906612      7.66e-04     00000  Normal BFGS step
   37   -1600.4463097350      6.09e-04     00000  Normal BFGS step
   38   -1600.4463158341      3.56e-04     00000  Normal BFGS step
   39   -1600.4463175399      1.37e-04     00000  Normal BFGS step
   40   -1600.4463179123      1.23e-04     00000  Normal BFGS step
   41   -1600.4463180880      5.06e-05     00000  Normal BFGS step
   42   -1600.4463181832      3.01e-05     00000  Normal BFGS step
   43   -1600.4463182180      2.52e-05     00000  Normal BFGS step
   44   -1600.4463182381      1.36e-05     00000  Normal BFGS step
   45   -1600.4463182469      1.07e-05     00000  Normal BFGS step
   46   -1600.4463182533      1.00e-05     00000  Normal BFGS step
   47   -1600.4463182585      8.86e-06     00000  Normal BFGS step
   48   -1600.4463182629      8.61e-06     00000  Normal BFGS step
   49   -1600.4463182658      5.72e-06     00000  Normal BFGS step
   50   -1600.4463182675      4.48e-06     00000  Normal BFGS step
   51   -1600.4463182685      3.77e-06     00000  Normal BFGS step
   52   -1600.4463182692      3.08e-06     00000  Normal BFGS step
   53   -1600.4463182697      2.51e-06     00000  Normal BFGS step
   54   -1600.4463182700      1.81e-06     00000  Normal BFGS step
   55   -1600.4463182703      2.35e-06     00000  Normal BFGS step
   56   -1600.4463182705      1.93e-06     00000  Normal BFGS step
   57   -1600.4463182706      1.06e-06     00000  Normal BFGS step
   58   -1600.4463182706      8.43e-07     00000  Normal BFGS step
   59   -1600.4463182706      5.35e-07     00000  Normal BFGS step
   60   -1600.4463182706      3.88e-07     00000  Normal BFGS step
   61   -1600.4463182706      3.00e-07     00000  Normal BFGS step
   62   -1600.4463182706      3.09e-07     00000  Normal BFGS step
   63   -1600.4463182706      1.69e-07     00000  Normal BFGS step
   64   -1600.4463182706      1.46e-07     00000  Normal BFGS step
   65   -1600.4463182706      1.25e-07     00000  Normal BFGS step
   66   -1600.4463182706      1.35e-07     00000  Normal BFGS step
   67   -1600.4463182706      6.69e-08     00000  Normal BFGS step
   68   -1600.4463182706      4.96e-08     00000  Normal BFGS step
   69   -1600.4463182706      4.01e-08     00000  Normal BFGS step
   70   -1600.4463182706      3.86e-08     00000  Normal BFGS step
   71   -1600.4463182706      2.79e-08     00000  Normal BFGS step
   72   -1600.4463182706      1.46e-08     00000  Normal BFGS step
   73   -1600.4463182706      1.57e-08     00000  Normal BFGS step
   74   -1600.4463182706      1.08e-08     00000  Normal BFGS step
   75   -1600.4463182706      9.70e-09     00000 Convergence criterion met
Timing for Algorithm GDM           : 723.00s (wall), 5882.81s (cpu)
Timing for Single Stationary Point: 743.00s (wall), 6042.90s (cpu)
Begin Timing: Stability
===================================================
Beginning Test for Internal Stability
===================================================
generating davidson guess vectors based on koopmans excitations
    1      1.91e+00     00000 Davidson Iteration
    2      1.11e+00     00000 Davidson Iteration
    3      8.04e-01     00000 Davidson Iteration
    4      4.11e-01     00000 Davidson Iteration
    5      3.14e-01     00000 Davidson Iteration
    6      2.89e-01     00000 Davidson Iteration
    7      1.74e-01     00000 Davidson Iteration
    8      1.45e-01     00000 Davidson Iteration
    9      3.49e-02     00000 Davidson Iteration
   10      2.18e-02     00000 Davidson Iteration
   11      6.89e-03     00000 Davidson Iteration
   12      3.71e-03     00000 Davidson Iteration
   13      1.04e-03     00000 Davidson Iteration
   14      1.23e-03     00000 Davidson Iteration
   15      1.19e-03     00000 Davidson Iteration
   16      3.86e-04     00000 Davidson Iteration
   17      1.67e-04     00000 Davidson Iteration
   18      2.14e-04     00000 Davidson Iteration
   19      3.35e-04     00000 Davidson Iteration
   20      1.08e-04     00000 Davidson Iteration
   21      5.08e-05     00000 Davidson Converged
converged_eigenvalues
   0.0181
   0.0563
Threshold for negative eigenvalues: -1.0e-05
solution was a local minimum (stable)
===================================================
End Test for Internal Stability
===================================================
Timing for Internal Stability: 350.00s (wall), 9167.52s (cpu)
Our SCF solution is stable!
Timing for Total SCF: 1093.00s (wall), 15210.46s (cpu)
 Total energy in the final basis set =    -1600.4463182706
    ==================================================
              The end of Object-Oriented SCFman       
    ==================================================
 
 --------------------------------------------------------------
 
                    Orbital Energies (a.u.)
 --------------------------------------------------------------
 
 Alpha MOs
 -- Occupied --
******** -31.9332 -27.4189 -27.4124 -27.4080 -20.6564 -20.6564 -20.6424
-11.3815 -11.3815 -11.3694  -4.1372  -2.7265  -2.7190  -2.7095  -1.4993
 -1.4992  -1.4846  -0.8209  -0.7993  -0.7875  -0.6878  -0.6487  -0.6369
 -0.6356  -0.6270  -0.6268  -0.6237  -0.5974  -0.5958  -0.5231  -0.5222
 -0.4713  -0.2284
 -- Virtual --
  0.0029   0.0558   0.0976   0.1099   0.1151   0.1211   0.1241   0.1555
  0.1574   0.2203   0.2243   0.2568   0.3079   0.3273   0.3461   0.3956
  0.4088   0.4392   0.4888   0.5338   0.5688   0.5954   0.6359   0.7352
  0.7577   0.7886   0.7946   0.8126   0.8334   0.8700   0.8972   0.9006
  0.9859   1.0203   1.0262   1.0319   1.1754   1.2386   1.2416   1.2571
  1.2722   1.2845   1.2938   1.3000   1.3420   1.3509   1.3604   1.3629
  1.3761   1.4184   1.4336   1.4395   1.4657   1.5235   1.5285   1.5588
  1.5884   1.6545   1.7443   1.7777   2.0054   2.0651   2.0724   2.1164
  2.1545   2.1569   2.2825   2.3060   2.8974   2.9315   2.9441   2.9461
  2.9495   2.9596   2.9611   2.9661   3.0686   3.2979   3.3015   3.3194
  3.3332   3.4990   3.5044   3.6255   3.6570   3.7612   3.7731   3.8329
  3.8573   3.8607   4.1421   4.2339   4.3492
 --------------------------------------------------------------
 
          Ground-State Mulliken Net Atomic Charges

     Atom                 Charge (a.u.)
  ----------------------------------------
      1 Fe                    0.312834
      2 C                     0.043463
      3 C                     0.042691
      4 C                     0.052798
      5 O                    -0.143692
      6 O                    -0.143376
      7 O                    -0.164718
  ----------------------------------------
  Sum of atomic charges =     0.000000

 -----------------------------------------------------------------
                    Cartesian Multipole Moments
 -----------------------------------------------------------------
    Charge (ESU x 10^10)
                 0.0000
    Dipole Moment (Debye)
         X      -3.0597      Y      -3.1328      Z      -0.9334
       Tot       4.4775
    Quadrupole Moments (Debye-Ang)
        XX     -50.1586     XY      -0.1541     YY     -49.7767
        XZ       1.7165     YZ       0.0593     ZZ     -55.0936
    Octopole Moments (Debye-Ang^2)
       XXX     -60.7484    XXY     -27.6713    XYY     -18.2044
       YYY    -103.2035    XXZ      -1.8395    XYZ      -0.0030
       YYZ      -5.2471    XZZ     -25.1735    YZZ     -27.5926
       ZZZ     -24.5805
    Hexadecapole Moments (Debye-Ang^3)
      XXXX    -200.9188   XXXY     -14.1387   XXYY    -100.0901
      XYYY     -17.2517   YYYY    -488.4981   XXXZ     100.1510
      XXYZ      -0.1233   XYYZ      28.4492   YYYZ      -3.2588
      XXZZ    -166.4656   XYZZ      -5.7906   YYZZ    -181.7658
      XZZZ     114.8806   YZZZ      -4.5651   ZZZZ    -820.0104
 -----------------------------------------------------------------
 Total job time:  1540.27s(wall), 15369.38s(cpu) 
 Mon Jan 15 05:37:50 2024

        *************************************************************
        *                                                           *
        *  Thank you very much for using Q-Chem.  Have a nice day.  *
        *                                                           *
        *************************************************************


 
User input: 2 of 2 
 
                  Welcome to Q-Chem
     A Quantum Leap Into The Future Of Chemistry


 Q-Chem 6.1 (devel), Q-Chem, Inc., Pleasanton, CA (2022)

 E. Epifanovsky,  A. T. B. Gilbert,  Xintian Feng,  Joonho Lee,  Yuezhi Mao,  
 N. Mardirossian,  P. Pokhilko,  A. White,  M. Wormit,  M. P. Coons,  
 A. L. Dempwolff,  Zhengting Gan,  D. Hait,  P. R. Horn,  L. D. Jacobson,  
 I. Kaliman,  J. Kussmann,  A. W. Lange,  Ka Un Lao,  D. S. Levine,  Jie Liu,  
 S. C. McKenzie,  A. F. Morrison,  K. D. Nanda,  F. Plasser,  D. R. Rehn,  
 M. L. Vidal,  Zhi-Qiang You,  Ying Zhu,  B. Alam,  B. Albrecht,  
 A. Aldossary,  E. Alguire,  J. H. Andersen,  V. Athavale,  D. Barton,  
 K. Begam,  A. Behn,  N. Bellonzi,  Y. A. Bernard,  E. J. Berquist,  
 H. Burton,  A. Carreras,  K. Carter-Fenk,  Mathew Chow,  Romit Chakraborty,  
 Chandrima Chakravarty,  Junhan Chen,  A. D. Chien,  K. D. Closser,  
 V. Cofer-Shabica,  L. Cunha,  S. Dasgupta,  Jia Deng,  M. de Wergifosse,  
 M. Diedenhofen,  Hainam Do,  S. Ehlert,  Po-Tung Fang,  S. Fatehi,  
 Qingguo Feng,  T. Friedhoff,  Thomas Froitzheim,  B. Ganoe,  J. Gayvert,  
 Qinghui Ge,  G. Gidofalvi,  M. Gimferrer,  M. Goldey,  Montgomery Gray,  
 J. Gomes,  C. Gonzalez-Espinoza,  S. Gulania,  A. Gunina,  J. A. Gyamfi,  
 M. W. D. Hanson-Heine,  P. H. P. Harbach,  A. W. Hauser,  M. F. Herbst,  
 M. Hernandez Vera,  M. Hodecker,  Z. C. Holden,  S. Houck,  Xunkun Huang,  
 Kerwin Hui,  B. C. Huynh,  K. Ikeda,  M. Ivanov,  Hyunjun Ji,  Zuxin Jin,  
 Hanjie Jiang,  Subrata Jana,  B. Kaduk,  S. Kaehler,  R. Kang,  
 K. Khistyaev,  Jaehoon Kim,  Yongbin Kim,  P. Klunzinger,  Z. Koczor-Benda,  
 Joong Hoon Koh,  D. Kosenkov,  Saikiran Kotaru,  L. Koulias,  T. Kowalczyk,  
 C. M. Krauter,  K. Kue,  A. Kunitsa,  T. Kus,  A. Landau,  K. V. Lawler,  
 D. Lefrancois,  S. Lehtola,  Rain Li,  Shaozhi Li,  Yi-Pei Li,  
 Jiashu Liang,  M. Liebenthal,  Hung-Hsuan Lin,  You-Sheng Lin,  Fenglai Liu,  
 Kuan-Yu Liu,  Xiao Liu,  M. Loipersberger,  A. Luenser,  C. Malbon,  
 A. Manjanath,  P. Manohar,  E. Mansoor,  S. F. Manzer,  Shan-Ping Mao,  
 A. V. Marenich,  T. Markovich,  S. Mason,  F. Matz,  S. A. Maurer,  
 P. F. McLaughlin,  M. F. S. J. Menger,  J.-M. Mewes,  S. A. Mewes,  
 P. Morgante,  Mohammad Mostafanejad,  J. W. Mullinax,  K. J. Oosterbaan,  
 G. Paran,  V. Parravicini,  Alexander C. Paul,  Suranjan K. Paul,  
 F. Pavosevic,  Zheng Pei,  S. Prager,  E. I. Proynov,  E. Ramos,  B. Rana,  
 A. E. Rask,  A. Rettig,  R. M. Richard,  F. Rob,  E. Rossomme,  T. Scheele,  
 M. Scheurer,  M. Schneider,  P. E. Schneider,  Tim K. Schramm,  N. Sergueev,  
 S. M. Sharada,  M. Sharma,  Hengyuan Shen,  W. Skomorowski,  D. W. Small,  
 C. J. Stein,  Alistair J. Sterling,  Yingli Su,  Yu-Chuan Su,  
 E. J. Sundstrom,  J. Talbot,  Zhen Tao,  J. Thirman,  Hung-Yi Tsai,  
 T. Tsuchimochi,  N. M. Tubman,  C. Utku,  S. P. Veccham,  O. Vydrov,  
 J. Wenzel,  Jonathan Wong,  J. Witte,  A. Yamada,  Chou-Hsun Yang,  Kun Yao,  
 S. Yeganeh,  S. R. Yost,  A. Zech,  F. Zeller,  Igor Ying Zhang,  
 Xing Zhang,  Yu Zhang,  D. Zuev,  A. Aspuru-Guzik,  A. T. Bell,  
 N. A. Besley,  K. B. Bravaya,  B. R. Brooks,  D. Casanova,  Jeng-Da Chai,  
 Hsing-Ta Chen,  S. Coriani,  C. J. Cramer,  A. E. DePrince, III,  
 R. A. DiStasio Jr.,  A. Dreuw,  B. D. Dunietz,  T. R. Furlani,  
 W. A. Goddard III,  S. Grimme,  S. Hammes-Schiffer,  T. Head-Gordon,  
 W. J. Hehre,  Chao-Ping Hsu,  T.-C. Jagau,  Yousung Jung,  A. Klamt,  
 Jing Kong,  D. S. Lambrecht,  Xiangyuan Li,  WanZhen Liang,  N. J. Mayhall,  
 C. W. McCurdy,  J. B. Neaton,  T. Neudecker,  C. Ochsenfeld,  
 J. A. Parkhill,  R. Peverati,  V. A. Rassolov,  Haisheng Ren,  Yihan Shao,  
 L. V. Slipchenko,  R. P. Steele,  J. E. Subotnik,  A. J. W. Thom,  
 A. Tkatchenko,  D. G. Truhlar,  T. Van Voorhis,  Fan Wang,  
 T. A. Wesolowski,  K. B. Whaley,  H. L. Woodcock III,  P. M. Zimmerman,  
 S. Faraji,  P. M. W. Gill,  M. Head-Gordon,  J. M. Herbert,  A. I. Krylov

 Contributors to earlier versions of Q-Chem not listed above: 
 R. D. Adamson,  B. Austin,  R. Baer,  J. Baker,  G. J. O. Beran,  
 K. Brandhorst,  S. T. Brown,  E. F. C. Byrd,  Arup K. Chakraborty,  
 G. K. L. Chan,  Chun-Min Chang,  Yunqing Chen,  C.-L. Cheng,  
 Siu Hung Chien,  D. M. Chipman,  D. L. Crittenden,  H. Dachsel,  
 R. J. Doerksen,  A. D. Dutoi,  R. G. Edgar,  J. Fosso-Tande,  
 L. Fusti-Molnar,  D. Ghosh,  A. Ghysels,  A. Golubeva-Zadorozhnaya,  
 J. Gonthier,  M. S. Gordon,  S. R. Gwaltney,  G. Hawkins,  J. E. Herr,  
 A. Heyden,  S. Hirata,  E. G. Hohenstein,  G. Kedziora,  F. J. Keil,  
 C. Kelley,  Jihan Kim,  R. A. King,  R. Z. Khaliullin,  P. P. Korambath,  
 W. Kurlancheek,  A. Laurent,  A. M. Lee,  M. S. Lee,  S. V. Levchenko,  
 Ching Yeh Lin,  D. Liotard,  E. Livshits,  R. C. Lochan,  I. Lotan,  
 L. A. Martinez-Martinez,  P. E. Maslen,  N. Nair,  D. P. O'Neill,  
 D. Neuhauser,  E. Neuscamman,  C. M. Oana,  R. Olivares-Amaya,  R. Olson,  
 T. M. Perrine,  B. Peters,  P. A. Pieniazek,  A. Prociuk,  Y. M. Rhee,  
 J. Ritchie,  M. A. Rohrdanz,  E. Rosta,  N. J. Russ,  H. F. Schaefer III,  
 M. W. Schmidt,  N. E. Schultz,  S. Sharma,  N. Shenvi,  C. D. Sherrill,  
 A. C. Simmonett,  A. Sodt,  T. Stein,  D. Stuck,  K. S. Thanthiriwatte,  
 V. Vanovschi,  L. Vogt,  Tao Wang,  A. Warshel,  M. A. Watson,  
 C. F. Williams,  Q. Wu,  X. Xu,  Jun Yang,  W. Zhang,  Yan Zhao

   Please cite Q-Chem as follows:
  "Software for the frontiers of quantum chemistry:
   An overview of developments in the Q-Chem 5 package"
   J. Chem. Phys. 155, 084801 (2021)
   https://doi.org/10.1063/5.0055522 (open access)

 Q-Chem 6.1.0 for Intel X86 EM64T Linux

 Parts of Q-Chem use Armadillo 9.900.5 (Nocturnal Misbehaviour).
 http://arma.sourceforge.net/

 Q-Chem begins on Mon Jan 15 05:37:50 2024  

 Host: n0071.mhg0
0

     Scratch files written to /local/scratch/users/juanes/O-CCSD_FeCO3-Cs-S0.in20240115051207//
 Processing $rem in /global/home/groups-sw/mhg/qchem_public/qchem_6101/config/preferences:
 Processing $rem in /global/home/users/juanes/.qchemrc:
 Core orbitals will be frozen

 Checking the input file for inconsistencies... 	...done.

--------------------------------------------------------------
User input:
--------------------------------------------------------------

$comment
  Optimization of the CCSD structure.
$end

$molecule
  0   1
  Fe
  C   1   rFeC_Legs
  C   1   rFeC_Legs  2  a_CC_Legs
  C   1   rFeC_Head  2  a_CC_LH     3 d_4123
  O   2   rCO_Legs   1  a_COFe_Legs 4 d_0
  O   3   rCO_Legs   1  a_COFe_Legs 4 d_0
  O   4   rCO_Head   1  a_COFe_Head 2 d_7412

  rFeC_Legs   =   1.87824
  rCO_Legs    =   1.15043
  rFeC_Head   =   1.78593
  rCO_Head    =   1.15509
  a_CC_Legs   = 145.22755
  a_CC_LH     =  89.07400
  a_COFe_Legs = 174.11873
  a_COFe_Head = 178.60155
  d_7412      = 134.26100
  d_4123      = -87.04100
  d_0         =   0.00000
$end

$rem
  JOBTYPE              OPT
  METHOD               CCSD
  UNRESTRICTED         FALSE
  BASIS                GEN
  PURECART             11
  SYMMETRY             FALSE
  SYM_IGNORE           TRUE
  GEN_SCFMAN           TRUE
  SCF_GUESS            READ
  SCF_ALGORITHM        GDM
  SCF_CONVERGENCE      7
  MAX_SCF_CYCLES       200
  CC_BACKEND           XM
  CC_MAX_ITER          200
  MEM_TOTAL            32000
  MEM_STATIC           1000
  THRESH               14
$end

$opt
  FIXED
  1 XYZ
  ENDFIXED
$end

$basis
C    0
cc-pVDZ
****
O    0
cc-pVDZ
****
Fe    0
cc-pVDZ
****
$end

--------------------------------------------------------------
 ----------------------------------------------------------------
             Standard Nuclear Orientation (Angstroms)
    I     Atom           X                Y                Z
 ----------------------------------------------------------------
    1      Fe      0.0000000000     0.0000000000     0.0000000000
    2      C       0.0000000000     0.0000000000     1.8782400000
    3      C       1.0711953234     0.0000000000    -1.5428305405
    4      C       0.0921800571     1.7833159446     0.0288624956
    5      O       0.0060852023     0.1177243602     3.0226145585
    6      O       1.7288519986     0.1177243615    -2.4793762453
    7      O       0.1719601657     2.9356470697     0.0278522897
 ----------------------------------------------------------------
 Nuclear Repulsion Energy =         393.34866297 hartrees
 There are       34 alpha and       34 beta electrons
 Requested basis set is non-standard
 There are 51 shells and 127 basis functions
 Total memory of 32000 MB is distributed as follows: 
   MEM_STATIC is set to 1000 MB
   QALLOC/CCMAN JOB total memory use is  31000 MB
 Warning: actual memory use might exceed 32000 MB

 Total QAlloc Memory Limit  32000 MB
 Mega-Array Size       978 MB
 MEM_STATIC part      1000 MB

 A cutoff of  1.0D-14 yielded   1253 shell pairs
 There are      7973 function pairs (      9581 Cartesian)
 Smallest overlap matrix eigenvalue = 2.66E-04

 Scale SEOQF with 1.000000e-01/1.000000e-01/1.000000e-01

 Standard Electronic Orientation quadrupole field applied
 Nucleus-field energy     =    -0.0000000095 hartrees
 Guess MOs from SCF MO coefficient file

 -----------------------------------------------------------------------
  General SCF calculation program by
  Eric Jon Sundstrom, Paul Horn, Yuezhi Mao, Dmitri Zuev, Alec White,
  David Stuck, Shaama M.S., Shane Yost, Joonho Lee, David Small,
  Daniel Levine, Susi Lehtola, Hugh Burton, Evgeny Epifanovsky,
  Bang C. Huynh
 -----------------------------------------------------------------------
 Hartree-Fock
 using 32 threads for integral computing
 -------------------------------------------------------
 OpenMP Integral computing Module                
 Release: version 1.0, May 2013, Q-Chem Inc. Pittsburgh 
 -------------------------------------------------------
 A restricted SCF calculation will be
 performed using GDM
 SCF converges when RMS gradient is below 1.0e-07
 ---------------------------------------
  Cycle       Energy        RMS Gradient
 ---------------------------------------
    1   -1600.4463182706      9.66e-09  Convergence criterion met
 ---------------------------------------
 SCF time:   CPU 153.99s  wall 18.00s 
 SCF   energy in the final basis set =    -1600.4463182706
 Total energy in the final basis set =    -1600.4463182706


 ------------------------------------------------------------------------------

   CCMAN2: suite of methods based on coupled cluster
           and equation of motion theories.

   Components:
   * libvmm-1.3-trunk
     by Evgeny Epifanovsky, Ilya Kaliman.
   * libtensor-2.5-trunk
     by Evgeny Epifanovsky, Michael Wormit, Dmitry Zuev, Sam Manzer, 
        Ilya Kaliman.
   * libcc-2.5-trunk
     by Evgeny Epifanovsky, Arik Landau, Tomasz Kus, Kirill Khistyaev, 
        Dmitry Zuev, Prashant Manohar, Xintian Feng, Anna Krylov, 
        Matthew Goldey, Alec White, Thomas Jagau, Kaushik Nanda, 
        Anastasia Gunina, Alexander Kunitsa, Joonho Lee.

   CCMAN original authors:
   Anna I. Krylov, C. David Sherrill, Steven R. Gwaltney,
   Edward F. C. Byrd (2000)
   Sergey V. Levchenko, Lyudmila V. Slipchenko, Tao Wang,
   Ana-Maria C. Cristian (2003)
   Piotr A. Pieniazek, C. Melania Oana, Evgeny Epifanovsky (2007)
   Prashant Manohar (2009)

 ------------------------------------------------------------------------------


 Calculation will run on 32 cores using libxm for tensor contractions

 ------------------------------------------------------------------------------
Libxm Tensor Library
Copyright (c) 2014-2018 Ilya Kaliman
https://github.com/ilyak/libxm
Reference: https://dx.doi.org/10.1002/jcc.24713
 ------------------------------------------------------------------------------

 
 Alpha MOs, Restricted
 -- Occupied --                  
-261.37  -31.93  -27.42  -27.41  -27.41  -20.66  -20.66  -20.64
  1 A     2 A     3 A     4 A     5 A     6 A     7 A     8 A                  
-11.382 -11.382 -11.369  -4.137  -2.727  -2.719  -2.710  -1.499
  9 A    10 A    11 A    12 A    13 A    14 A    15 A    16 A                  
 -1.499  -1.485  -0.821  -0.799  -0.787  -0.688  -0.649  -0.637
 17 A    18 A    19 A    20 A    21 A    22 A    23 A    24 A                  
 -0.636  -0.627  -0.627  -0.624  -0.597  -0.596  -0.523  -0.522
 25 A    26 A    27 A    28 A    29 A    30 A    31 A    32 A                  
 -0.471  -0.228
 33 A    34 A                                                                  
 -- Virtual --                   
  0.003   0.056   0.098   0.110   0.115   0.121   0.124   0.156
 35 A    36 A    37 A    38 A    39 A    40 A    41 A    42 A                  
  0.157   0.220   0.224   0.257   0.308   0.327   0.346   0.396
 43 A    44 A    45 A    46 A    47 A    48 A    49 A    50 A                  
  0.409   0.439   0.489   0.534   0.569   0.595   0.636   0.735
 51 A    52 A    53 A    54 A    55 A    56 A    57 A    58 A                  
  0.758   0.789   0.795   0.813   0.833   0.870   0.897   0.901
 59 A    60 A    61 A    62 A    63 A    64 A    65 A    66 A                  
  0.986   1.020   1.026   1.032   1.175   1.239   1.242   1.257
 67 A    68 A    69 A    70 A    71 A    72 A    73 A    74 A                  
  1.272   1.285   1.294   1.300   1.342   1.351   1.360   1.363
 75 A    76 A    77 A    78 A    79 A    80 A    81 A    82 A                  
  1.376   1.418   1.434   1.439   1.466   1.523   1.528   1.559
 83 A    84 A    85 A    86 A    87 A    88 A    89 A    90 A                  
  1.588   1.655   1.744   1.778   2.005   2.065   2.072   2.116
 91 A    92 A    93 A    94 A    95 A    96 A    97 A    98 A                  
  2.155   2.157   2.283   2.306   2.897   2.931   2.944   2.946
 99 A   100 A   101 A   102 A   103 A   104 A   105 A   106 A                  
  2.950   2.960   2.961   2.966   3.069   3.298   3.302   3.319
107 A   108 A   109 A   110 A   111 A   112 A   113 A   114 A                  
  3.333   3.499   3.504   3.626   3.657   3.761   3.773   3.833
115 A   116 A   117 A   118 A   119 A   120 A   121 A   122 A                  
  3.857   3.861   4.142   4.234   4.349
123 A   124 A   125 A   126 A   127 A                                          
 
 Beta MOs, Restricted
 -- Occupied --                  
-261.37  -31.93  -27.42  -27.41  -27.41  -20.66  -20.66  -20.64
  1 A     2 A     3 A     4 A     5 A     6 A     7 A     8 A                  
-11.382 -11.382 -11.369  -4.137  -2.727  -2.719  -2.710  -1.499
  9 A    10 A    11 A    12 A    13 A    14 A    15 A    16 A                  
 -1.499  -1.485  -0.821  -0.799  -0.787  -0.688  -0.649  -0.637
 17 A    18 A    19 A    20 A    21 A    22 A    23 A    24 A                  
 -0.636  -0.627  -0.627  -0.624  -0.597  -0.596  -0.523  -0.522
 25 A    26 A    27 A    28 A    29 A    30 A    31 A    32 A                  
 -0.471  -0.228
 33 A    34 A                                                                  
 -- Virtual --                   
  0.003   0.056   0.098   0.110   0.115   0.121   0.124   0.156
 35 A    36 A    37 A    38 A    39 A    40 A    41 A    42 A                  
  0.157   0.220   0.224   0.257   0.308   0.327   0.346   0.396
 43 A    44 A    45 A    46 A    47 A    48 A    49 A    50 A                  
  0.409   0.439   0.489   0.534   0.569   0.595   0.636   0.735
 51 A    52 A    53 A    54 A    55 A    56 A    57 A    58 A                  
  0.758   0.789   0.795   0.813   0.833   0.870   0.897   0.901
 59 A    60 A    61 A    62 A    63 A    64 A    65 A    66 A                  
  0.986   1.020   1.026   1.032   1.175   1.239   1.242   1.257
 67 A    68 A    69 A    70 A    71 A    72 A    73 A    74 A                  
  1.272   1.285   1.294   1.300   1.342   1.351   1.360   1.363
 75 A    76 A    77 A    78 A    79 A    80 A    81 A    82 A                  
  1.376   1.418   1.434   1.439   1.466   1.523   1.528   1.559
 83 A    84 A    85 A    86 A    87 A    88 A    89 A    90 A                  
  1.588   1.655   1.744   1.778   2.005   2.065   2.072   2.116
 91 A    92 A    93 A    94 A    95 A    96 A    97 A    98 A                  
  2.155   2.157   2.283   2.306   2.897   2.931   2.944   2.946
 99 A   100 A   101 A   102 A   103 A   104 A   105 A   106 A                  
  2.950   2.960   2.961   2.966   3.069   3.298   3.302   3.319
107 A   108 A   109 A   110 A   111 A   112 A   113 A   114 A                  
  3.333   3.499   3.504   3.626   3.657   3.761   3.773   3.833
115 A   116 A   117 A   118 A   119 A   120 A   121 A   122 A                  
  3.857   3.861   4.142   4.234   4.349
123 A   124 A   125 A   126 A   127 A                                          

 Occupation and symmetry of molecular orbitals

 Point group: C1 (1 irreducible representation).

                           A     All 
 -------------------------------------
 All molecular orbitals:
  - Alpha                  127   127 
  - Beta                   127   127 
 -------------------------------------
 Alpha orbitals:
  - Frozen occupied        15    15  
  - Active occupied        19    19  
  - Active virtual         93    93  
  - Frozen virtual         0     0   
 -------------------------------------
 Beta orbitals:
  - Frozen occupied        15    15  
  - Active occupied        19    19  
  - Active virtual         93    93  
  - Frozen virtual         0     0   
 -------------------------------------

 Import integrals:   CPU 0.00 s  wall 0.00 s

 Import integrals:   CPU 81.59 s  wall 5.68 s

 MP2 amplitudes:   CPU 6.33 s  wall 0.25 s

Running a double precision version
           CCSD T amplitudes will be solved using DIIS.

           Start     Size      MaxIter   EConv     TConv     
           3         7         200       1.00e-07  1.00e-05  
 ------------------------------------------------------------------------------
           Energy (a.u.)   Ediff      Tdiff       Comment
 ------------------------------------------------------------------------------
         -1601.72084748                           
     1   -1601.57727905   1.44e-01   8.22e-01     
     2   -1601.72282758   1.46e-01   1.40e-01     
     3   -1601.66353566   5.93e-02   1.07e-01     
     4   -1601.70157572   3.80e-02   1.70e-01     Switched to DIIS steps.
     5   -1601.72311263   2.15e-02   3.82e-02     
     6   -1601.73841150   1.53e-02   3.30e-02     
     7   -1601.74156561   3.15e-03   1.70e-02     
     8   -1601.74760979   6.04e-03   2.10e-02     
     9   -1601.74924067   1.63e-03   6.75e-03     
    10   -1601.74976697   5.26e-04   3.85e-03     
    11   -1601.75085910   1.09e-03   5.09e-03     
    12   -1601.75154660   6.88e-04   3.51e-03     
    13   -1601.75155072   4.12e-06   2.72e-03     
    14   -1601.75188416   3.33e-04   1.39e-03     
    15   -1601.75185993   2.42e-05   7.51e-04     
    16   -1601.75192365   6.37e-05   6.44e-04     
    17   -1601.75196866   4.50e-05   2.90e-04     
    18   -1601.75196981   1.16e-06   1.73e-04     
    19   -1601.75199188   2.21e-05   1.26e-04     
    20   -1601.75198966   2.22e-06   8.43e-05     
    21   -1601.75199448   4.83e-06   9.68e-05     
    22   -1601.75199102   3.46e-06   6.26e-05     
    23   -1601.75199031   7.11e-07   3.54e-05     
    24   -1601.75198726   3.05e-06   3.07e-05     
    25   -1601.75198608   1.18e-06   2.68e-05     
    26   -1601.75198608   5.58e-09   2.41e-05     
    27   -1601.75198617   8.65e-08   1.70e-05     
    28   -1601.75198876   2.59e-06   1.59e-05     
    29   -1601.75198931   5.45e-07   1.47e-05     
    30   -1601.75199172   2.42e-06   9.64e-06     
    31   -1601.75199218   4.53e-07   8.75e-06     
    32   -1601.75199344   1.27e-06   6.15e-06     
    33   -1601.75199365   2.10e-07   4.70e-06     
    34   -1601.75199413   4.79e-07   4.54e-06     
    35   -1601.75199411   2.00e-08   3.84e-06     
 ------------------------------------------------------------------------------
         -1601.75199411                           CCSD T converged.

End of double precision
 SCF energy                 = -1600.44631827
 MP2 energy                 = -1601.72084748
 CCSD correlation energy    =    -1.30567584
 CCSD total energy          = -1601.75199411

 CCSD  T1^2 = 1.3456  T2^2 = 0.6449  Leading amplitudes:

 Amplitude    Orbitals with energies
 -0.3736       34 (A) A                  ->    36 (A) A                   
              -0.2284                          0.0558                     
 -0.3736       34 (A) B                  ->    36 (A) B                   
              -0.2284                          0.0558                     
  0.2891       34 (A) A                  ->    35 (A) A                   
              -0.2284                          0.0029                     
  0.2891       34 (A) B                  ->    35 (A) B                   
              -0.2284                          0.0029                     
  0.2683       34 (A) A                  ->    43 (A) A                   
              -0.2284                          0.1574                     
  0.2683       34 (A) B                  ->    43 (A) B                   
              -0.2284                          0.1574                     
  0.1979       34 (A) A                  ->    42 (A) A                   
              -0.2284                          0.1555                     
  0.1979       34 (A) B                  ->    42 (A) B                   
              -0.2284                          0.1555                     
 -0.1949       34 (A) A                  ->    45 (A) A                   
              -0.2284                          0.2243                     
 -0.1949       34 (A) B                  ->    45 (A) B                   
              -0.2284                          0.2243                     
 -0.1676       34 (A) A                  ->    47 (A) A                   
              -0.2284                          0.3079                     
 -0.1676       34 (A) B                  ->    47 (A) B                   
              -0.2284                          0.3079                     
 -0.1660       31 (A) A                  ->    40 (A) A                   
              -0.5231                          0.1211                     
 -0.1660       31 (A) B                  ->    40 (A) B                   
              -0.5231                          0.1211                     
 -0.1657       32 (A) A                  ->    38 (A) A                   
              -0.5222                          0.1099                     
 -0.1657       32 (A) B                  ->    38 (A) B                   
              -0.5222                          0.1099                     
  0.1564       31 (A) A                  ->    35 (A) A                   
              -0.5231                          0.0029                     
  0.1564       31 (A) B                  ->    35 (A) B                   
              -0.5231                          0.0029                     
  0.1512       33 (A) A                  ->    37 (A) A                   
              -0.4713                          0.0976                     
  0.1512       33 (A) B                  ->    37 (A) B                   
              -0.4713                          0.0976                     
 -0.1430       34 (A) A                  ->    39 (A) A                   
              -0.2284                          0.1151                     
 -0.1430       34 (A) B                  ->    39 (A) B                   
              -0.2284                          0.1151                     
  0.1271       33 (A) A                  ->    38 (A) A                   
              -0.4713                          0.1099                     
  0.1271       33 (A) B                  ->    38 (A) B                   
              -0.4713                          0.1099                     
  0.1183       33 (A) A                  ->    41 (A) A                   
              -0.4713                          0.1241                     
  0.1183       33 (A) B                  ->    41 (A) B                   
              -0.4713                          0.1241                     

 Amplitude    Orbitals with energies
 -0.0460       34 (A) A      34 (A) B    ->    46 (A) A      46 (A) B     
              -0.2284       -0.2284            0.2568        0.2568       
  0.0460       34 (A) A      34 (A) B    ->    46 (A) B      46 (A) A     
              -0.2284       -0.2284            0.2568        0.2568       
  0.0460       34 (A) B      34 (A) A    ->    46 (A) A      46 (A) B     
              -0.2284       -0.2284            0.2568        0.2568       
 -0.0460       34 (A) B      34 (A) A    ->    46 (A) B      46 (A) A     
              -0.2284       -0.2284            0.2568        0.2568       

 Computing CCSD intermediates for later calculations in double precision
 Finished.

Running a double precision version
           CCSD Lambda amplitudes will be solved using DIIS.
           Start     Size      MaxIter   EConv     LConv     
           3         7         200       1.00e-07  1.00e-05  
 ------------------------------------------------------------------------------
            Enorm      Ldiff       Comment
 ------------------------------------------------------------------------------
     1     7.39e-01   2.12e-01     
     2     3.74e-01   1.73e-02     
     3     2.53e-01   9.32e-02     
     4     8.47e-02   2.01e-03     Switched to DIIS steps.
     5     6.39e-02   5.40e-02     
     6     4.75e-02   2.58e-02     
     7     3.32e-02   4.20e-02     
     8     1.72e-02   3.47e-02     
     9     1.20e-02   1.57e-02     
    10     9.32e-03   9.69e-03     
    11     7.07e-03   7.06e-03     
    12     5.26e-03   3.53e-03     
    13     3.63e-03   1.65e-03     
    14     2.63e-03   2.66e-04     
    15     2.09e-03   1.56e-04     
    16     1.75e-03   5.67e-04     
    17     1.48e-03   7.95e-04     
    18     1.15e-03   9.93e-04     
    19     8.77e-04   1.19e-03     
    20     6.33e-04   1.06e-03     
    21     4.68e-04   8.17e-04     
    22     3.63e-04   5.61e-04     
    23     2.93e-04   3.03e-04     
    24     2.36e-04   2.05e-04     
    25     1.51e-04   2.94e-04     
    26     1.05e-04   1.22e-04     
    27     7.75e-05   6.67e-05     
    28     5.94e-05   3.25e-05     
    29     4.65e-05   2.15e-05     
    30     3.91e-05   3.21e-06     
    31     3.24e-05   4.78e-06     
    32     2.59e-05   4.10e-06     
    33     2.16e-05   1.16e-05     
    34     1.88e-05   1.23e-05     
    35     1.54e-05   1.68e-05     
    36     1.26e-05   1.49e-05     
    37     1.01e-05   1.28e-05     
    38     7.43e-06   1.58e-05     
    39     5.17e-06   9.67e-06     
    40     3.95e-06   5.76e-06     
    41     3.08e-06   3.19e-06     
    42     2.41e-06   2.05e-06     
    43     1.85e-06   1.11e-06     
    44     1.20e-06   4.69e-07     
    45     8.60e-07   2.80e-07     
    46     7.11e-07   1.90e-07     
    47     5.69e-07   3.49e-07     
    48     4.62e-07   3.95e-07     
    49     3.50e-07   5.11e-07     
    50     2.75e-07   3.44e-07     
    51     2.24e-07   2.85e-07     
    52     1.83e-07   2.36e-07     
    53     1.56e-07   1.43e-07     
    54     1.26e-07   1.52e-07     
    55     1.02e-07   1.11e-07     
    56     7.12e-08   1.17e-07     
 ------------------------------------------------------------------------------
                                   CCSD Lambda converged.

 Computing density matrices in double precision...
           Orbital response amplitudes will be solved using DIIS.
           Start     Size      MaxIter   EConv     LConv     
           3         7         200       1.00e-06  1.00e-06  
 ------------------------------------------------------------------------------
            Enorm      Ldiff       Comment
 ------------------------------------------------------------------------------
     1     4.11e-01   1.33e-02     
     2     4.84e-01   2.99e-01     
     3     1.56e+00   5.86e-01     
     4     2.47e-01   6.59e-01     Switched to DIIS steps.
     5     2.19e-01   1.46e-02     
     6     2.03e-01   4.39e-02     
     7     1.05e-01   1.79e-01     
     8     6.96e-02   1.34e-01     
     9     3.08e-02   1.26e-01     
    10     1.50e-02   6.19e-02     
    11     5.71e-03   2.87e-02     
    12     8.12e-03   2.23e-04     
    13     3.35e-03   2.33e-02     
    14     1.49e-03   1.30e-03     
    15     9.57e-04   1.03e-03     
    16     7.41e-04   6.81e-05     
    17     5.53e-04   4.88e-04     
    18     4.66e-04   1.13e-03     
    19     4.25e-04   3.53e-04     
    20     4.13e-04   5.74e-04     
    21     4.26e-04   6.10e-04     
    22     3.40e-04   6.04e-04     
    23     3.05e-04   9.06e-04     
    24     2.12e-04   9.50e-04     
    25     1.57e-04   7.58e-04     
    26     1.60e-04   1.78e-04     
    27     1.55e-04   1.06e-03     
    28     8.13e-05   4.37e-04     
    29     4.47e-05   1.27e-04     
    30     4.00e-05   2.97e-05     
    31     2.75e-05   1.83e-05     
    32     3.16e-05   5.24e-05     
    33     2.12e-05   2.49e-05     
    34     1.32e-05   2.18e-05     
    35     9.84e-06   3.29e-05     
    36     4.59e-06   3.53e-05     
    37     4.32e-06   1.60e-05     
    38     4.38e-06   5.50e-07     
    39     3.82e-06   1.07e-06     
    40     3.23e-06   8.51e-06     
    41     2.62e-06   1.07e-05     
    42     3.37e-06   5.52e-06     
    43     2.10e-06   4.28e-07     
    44     1.13e-06   4.58e-06     
    45     8.25e-07   8.38e-07     
 ------------------------------------------------------------------------------
                                   Orbital response converged.

 Computing density matrices... Done.
 CCSD calculation:   CPU 7102.88 s  wall 303.00 s

 Transferring MO TPDM to AO TPDM
 Transferring g2_o1o1o1o1
 Transferring g2_o1o1o1v1
 Transferring g2_o1o1v1v1
 Transferring g2_o1v1o1v1
 Transferring g2_o1v1v1v1
 Transferring g2_v1v1v1v1
 Adding separable TPDM
 Computing TPDM gradient
 --------------------------------------------------------
 2e gradient
  Atom          X               Y               Z
 --------------------------------------------------------
    1         13.438114       23.687117        4.158671  
    2          0.445411        3.569015        3.137462  
    3          2.168305        3.607698       -2.318705  
    4          1.309525        1.603017       -0.094280  
    5          0.275717       -1.036534      -29.107571  
    6        -16.385948       -1.016511       24.077995  
    7         -1.251126      -30.413801        0.146428  
 --------------------------------------------------------
 --------------------------------------------------------
 Final gradient
  Atom          X               Y               Z
 --------------------------------------------------------
    1         13.438114       23.687117        4.158671  
    2          0.445411        3.569015        3.137462  
    3          2.168305        3.607698       -2.318705  
    4          1.309525        1.603017       -0.094280  
    5          0.275717       -1.036534      -29.107571  
    6        -16.385948       -1.016511       24.077995  
    7         -1.251126      -30.413801        0.146428  
 --------------------------------------------------------
 Analytic gradient from two-electron contribution:   CPU 519.65 s  wall 22.41 s

 Total ccman2 time:   CPU 8314.62 s  wall 350.28 s

 
 --------------------------------------------------------------
 
                    Orbital Energies (a.u.)
 --------------------------------------------------------------
 
 Alpha MOs
 -- Occupied --
******** -31.9332 -27.4189 -27.4124 -27.4080 -20.6564 -20.6564 -20.6424
-11.3815 -11.3815 -11.3694  -4.1372  -2.7265  -2.7190  -2.7095  -1.4993
 -1.4992  -1.4846  -0.8209  -0.7993  -0.7875  -0.6878  -0.6487  -0.6369
 -0.6356  -0.6270  -0.6268  -0.6237  -0.5974  -0.5958  -0.5231  -0.5222
 -0.4713  -0.2284
 -- Virtual --
  0.0029   0.0558   0.0976   0.1099   0.1151   0.1211   0.1241   0.1555
  0.1574   0.2203   0.2243   0.2568   0.3079   0.3273   0.3461   0.3956
  0.4088   0.4392   0.4888   0.5338   0.5688   0.5954   0.6359   0.7352
  0.7577   0.7886   0.7946   0.8126   0.8334   0.8700   0.8972   0.9006
  0.9859   1.0203   1.0262   1.0319   1.1754   1.2386   1.2416   1.2571
  1.2722   1.2845   1.2938   1.3000   1.3420   1.3509   1.3604   1.3629
  1.3761   1.4184   1.4336   1.4395   1.4657   1.5235   1.5285   1.5588
  1.5884   1.6545   1.7443   1.7777   2.0054   2.0651   2.0724   2.1164
  2.1545   2.1569   2.2825   2.3060   2.8974   2.9315   2.9441   2.9461
  2.9495   2.9596   2.9611   2.9661   3.0686   3.2979   3.3015   3.3194
  3.3332   3.4990   3.5044   3.6255   3.6570   3.7612   3.7731   3.8329
  3.8573   3.8607   4.1421   4.2339   4.3492
 --------------------------------------------------------------
 
          Ground-State Mulliken Net Atomic Charges

     Atom                 Charge (a.u.)
  ----------------------------------------
      1 Fe                    0.159506
      2 C                    -0.031623
      3 C                    -0.032050
      4 C                     0.007093
      5 O                    -0.024038
      6 O                    -0.023746
      7 O                    -0.055141
  ----------------------------------------
  Sum of atomic charges =     0.000000

 -----------------------------------------------------------------
                    Cartesian Multipole Moments
 -----------------------------------------------------------------
    Charge (ESU x 10^10)
                 0.0000
    Dipole Moment (Debye)
         X      -0.9603      Y      -2.3387      Z      -0.2856
       Tot       2.5442
    Quadrupole Moments (Debye-Ang)
        XX     -49.8872     XY      -0.4375     YY     -48.5243
        XZ       0.8079     YZ      -0.0635     ZZ     -52.2201
    Octopole Moments (Debye-Ang^2)
       XXX     -51.7938    XXY     -27.0423    XYY     -16.4491
       YYY     -95.4256    XXZ      -2.7845    XYZ      -0.2396
       YYZ      -4.7921    XZZ     -20.0769    YZZ     -26.3107
       ZZZ     -19.2586
    Hexadecapole Moments (Debye-Ang^3)
      XXXX    -199.0363   XXXY     -14.6097   XXYY     -99.9165
      XYYY     -17.0691   YYYY    -466.3359   XXXZ      96.4772
      XXYZ      -0.1658   XYYZ      28.5605   YYYZ      -3.4803
      XXZZ    -160.8392   XYZZ      -5.9753   YYZZ    -182.0122
      XZZZ     104.8137   YZZZ      -4.7833   ZZZZ    -778.5909
 -----------------------------------------------------------------
 DrvMan completing analytic gradient of the correlated energy
 Correlated dipole moment
            1
    1  -0.3777919
    2  -0.9201096
    3  -0.1123453
 Energy read as -1601.751994112
 Full Analytical Gradient: (in a.u., or Hartree/Bohr)
             1             2             3             4             5
    1   -0.00743833    0.00892377    0.01123279   -0.00737655   -0.00378662
    2    0.00397115   -0.00572177   -0.00599407    0.00752736    0.00264951
    3   -0.00349651    0.00716433   -0.00068877   -0.00020715   -0.00467314
             6             7
    1   -0.00574814    0.00419308
    2    0.00267277   -0.00510495
    3    0.00166940    0.00023185
 Gradient time:  CPU 14.22 s  wall 15.05 s
 Geometry Optimization Parameters
   NAtoms,    NIC,     NZ,  NCons,   NDum,   NFix, NCnnct, MaxDiis
        7      32       7       0       0       1       0       0
**WARNING** Cannot use Internal Coordinates with Fixed Atoms
  Cartesian Optimization Enforced


** GEOMETRY OPTIMIZATION IN CARTESIAN COORDINATES **
   Searching for a Minimum

   Optimization Cycle:   1

                       Coordinates (Angstroms)
     ATOM                X               Y               Z
      1  Fe        0.0000000000    0.0000000000    0.0000000000
      2  C         0.0000000000    0.0000000000    1.8782400000
      3  C         1.0711953234    0.0000000000   -1.5428305405
      4  C         0.0921800571    1.7833159446    0.0288624956
      5  O         0.0060852023    0.1177243602    3.0226145585
      6  O         1.7288519986    0.1177243615   -2.4793762453
      7  O         0.1719601657    2.9356470697    0.0278522897
   Point Group: c1    Number of degrees of freedom:    15


   Energy is  -1601.751994112

            Atoms with "Fixed" Coordinates
                Atom    Coordinates
                     1        X  Y  Z

 18 Hessian modes will be used to form the next step
  Hessian Eigenvalues:
     1.000000    1.000000    1.000000    1.000000    1.000000    1.000000
     1.000000    1.000000    1.000000    1.000000    1.000000    1.000000
     1.000000    1.000000    1.000000    1.000000    1.000000    1.000000

 Minimum search - taking simple RFO step
 Searching for Lamda that Minimizes Along All modes
 Value Taken    Lamda =  -0.00056694
 Step Taken.  Stepsize is  0.023804

                             Maximum     Tolerance    Cnvgd?
         Gradient           0.011233      0.000300      NO
         Displacement       0.010164      0.001200      NO
         Energy change     *********      0.000001      NO

 ----------------------------------------------------------------
             Standard Nuclear Orientation (Angstroms)
    I     Atom           X                Y                Z
 ----------------------------------------------------------------
    1      Fe      0.0005619948    -0.0003000363     0.0002641753
    2      C      -0.0041575841     0.0027260765     1.8747151215
    3      C       1.0658165504     0.0028700937    -1.5422020891
    4      C       0.0966433397     1.7790348578     0.0292362261
    5      O       0.0086498561     0.1160230602     3.0253502538
    6      O       1.7324540546     0.1160107567    -2.4799949757
    7      O       0.1703045356     2.9380469275     0.0279938462
 ----------------------------------------------------------------
 Nuclear Repulsion Energy =         393.22906934 hartrees
 There are       34 alpha and       34 beta electrons
 Applying Cartesian multipole field
    Component          Value
    ---------          -----
     (2,0,0)        1.00000E-11
     (0,2,0)        2.00000E-11
     (0,0,2)       -3.00000E-11
 Nucleus-field energy     =    -0.0000000095 hartrees
 Requested basis set is non-standard
 There are 51 shells and 127 basis functions
 A cutoff of  1.0D-14 yielded   1254 shell pairs
 There are      7974 function pairs (      9582 Cartesian)
 Smallest overlap matrix eigenvalue = 2.66E-04
 Guess MOs from SCF MO coefficient file

 -----------------------------------------------------------------------
  General SCF calculation program by
  Eric Jon Sundstrom, Paul Horn, Yuezhi Mao, Dmitri Zuev, Alec White,
  David Stuck, Shaama M.S., Shane Yost, Joonho Lee, David Small,
  Daniel Levine, Susi Lehtola, Hugh Burton, Evgeny Epifanovsky,
  Bang C. Huynh
 -----------------------------------------------------------------------
 Hartree-Fock
 A restricted SCF calculation will be
 performed using GDM
 SCF converges when RMS gradient is below 1.0e-07
 ---------------------------------------
  Cycle       Energy        RMS Gradient
 ---------------------------------------
    1   -1600.4427135356      1.80e-03   Normal BFGS step
    2   -1600.4429122158      1.50e-03   Normal BFGS step
    3   -1600.4429319682      1.42e-03   Normal BFGS step
    4   -1600.4429410252      9.04e-04   Normal BFGS step
    5   -1600.4429446714      3.07e-04   Normal BFGS step
    6   -1600.4429464950      3.43e-04   Normal BFGS step
    7   -1600.4429481302      3.37e-04   Normal BFGS step
    8   -1600.4429506339      4.06e-04   Normal BFGS step
    9   -1600.4429526285      3.90e-04   Normal BFGS step
   10   -1600.4429551517      2.80e-04   Normal BFGS step
   11   -1600.4429569858      2.13e-04   Normal BFGS step
   12   -1600.4429585232      1.90e-04   Normal BFGS step
   13   -1600.4429599882      2.63e-04   Normal BFGS step
   14   -1600.4429615982      3.37e-04   Normal BFGS step
   15   -1600.4429630502      2.50e-04   Normal BFGS step
   16   -1600.4429638907      9.77e-05   Normal BFGS step
   17   -1600.4429642219      7.64e-05   Normal BFGS step
   18   -1600.4429643801      7.88e-05   Normal BFGS step
   19   -1600.4429645140      7.53e-05   Normal BFGS step
   20   -1600.4429646666      6.41e-05   Normal BFGS step
   21   -1600.4429648225      6.80e-05   Normal BFGS step
   22   -1600.4429649416      5.61e-05   Normal BFGS step
   23   -1600.4429650163      5.23e-05   Normal BFGS step
   24   -1600.4429650679      4.09e-05   Normal BFGS step
   25   -1600.4429651066      2.26e-05   Normal BFGS step
   26   -1600.4429651232      2.67e-05   Normal BFGS step
   27   -1600.4429651259      2.57e-05   Normal BFGS step
   28   -1600.4429651299      4.09e-06   Normal BFGS step
   29   -1600.4429651302      3.04e-06   Normal BFGS step
   30   -1600.4429651304      2.37e-06   Normal BFGS step
   31   -1600.4429651306      2.20e-06   Normal BFGS step
   32   -1600.4429651307      1.92e-06   Normal BFGS step
   33   -1600.4429651308      9.83e-07   Normal BFGS step
   34   -1600.4429651308      5.54e-07   Normal BFGS step
   35   -1600.4429651308      1.82e-07   Normal BFGS step
   36   -1600.4429651308      1.23e-07   Normal BFGS step
   37   -1600.4429651308      1.06e-07   Normal BFGS step
   38   -1600.4429651308      9.23e-08  Convergence criterion met
 ---------------------------------------
 SCF time:   CPU 3140.84s  wall 396.00s 
 SCF   energy in the final basis set =    -1600.4429651308
 Total energy in the final basis set =    -1600.4429651308


 ------------------------------------------------------------------------------

   CCMAN2: suite of methods based on coupled cluster
           and equation of motion theories.

   Components:
   * libvmm-1.3-trunk
     by Evgeny Epifanovsky, Ilya Kaliman.
   * libtensor-2.5-trunk
     by Evgeny Epifanovsky, Michael Wormit, Dmitry Zuev, Sam Manzer, 
        Ilya Kaliman.
   * libcc-2.5-trunk
     by Evgeny Epifanovsky, Arik Landau, Tomasz Kus, Kirill Khistyaev, 
        Dmitry Zuev, Prashant Manohar, Xintian Feng, Anna Krylov, 
        Matthew Goldey, Alec White, Thomas Jagau, Kaushik Nanda, 
        Anastasia Gunina, Alexander Kunitsa, Joonho Lee.

   CCMAN original authors:
   Anna I. Krylov, C. David Sherrill, Steven R. Gwaltney,
   Edward F. C. Byrd (2000)
   Sergey V. Levchenko, Lyudmila V. Slipchenko, Tao Wang,
   Ana-Maria C. Cristian (2003)
   Piotr A. Pieniazek, C. Melania Oana, Evgeny Epifanovsky (2007)
   Prashant Manohar (2009)

 ------------------------------------------------------------------------------


 Calculation will run on 32 cores using libxm for tensor contractions

 ------------------------------------------------------------------------------
Libxm Tensor Library
Copyright (c) 2014-2018 Ilya Kaliman
https://github.com/ilyak/libxm
Reference: https://dx.doi.org/10.1002/jcc.24713
 ------------------------------------------------------------------------------

 
 Alpha MOs, Restricted
 -- Occupied --                  
-261.37  -31.94  -27.42  -27.42  -27.41  -20.66  -20.66  -20.64
  1 A     2 A     3 A     4 A     5 A     6 A     7 A     8 A                  
-11.384 -11.384 -11.369  -4.141  -2.730  -2.723  -2.713  -1.496
  9 A    10 A    11 A    12 A    13 A    14 A    15 A    16 A                  
 -1.496  -1.477  -0.822  -0.800  -0.786  -0.687  -0.649  -0.635
 17 A    18 A    19 A    20 A    21 A    22 A    23 A    24 A                  
 -0.634  -0.627  -0.626  -0.620  -0.595  -0.593  -0.526  -0.524
 25 A    26 A    27 A    28 A    29 A    30 A    31 A    32 A                  
 -0.476  -0.231
 33 A    34 A                                                                  
 -- Virtual --                   
  0.002   0.053   0.096   0.108   0.115   0.120   0.122   0.153
 35 A    36 A    37 A    38 A    39 A    40 A    41 A    42 A                  
  0.156   0.219   0.222   0.256   0.306   0.326   0.345   0.394
 43 A    44 A    45 A    46 A    47 A    48 A    49 A    50 A                  
  0.408   0.438   0.488   0.532   0.569   0.594   0.633   0.737
 51 A    52 A    53 A    54 A    55 A    56 A    57 A    58 A                  
  0.758   0.789   0.797   0.812   0.833   0.868   0.894   0.897
 59 A    60 A    61 A    62 A    63 A    64 A    65 A    66 A                  
  0.983   1.017   1.026   1.034   1.172   1.236   1.239   1.258
 67 A    68 A    69 A    70 A    71 A    72 A    73 A    74 A                  
  1.274   1.285   1.293   1.302   1.339   1.350   1.360   1.362
 75 A    76 A    77 A    78 A    79 A    80 A    81 A    82 A                  
  1.375   1.417   1.433   1.437   1.465   1.517   1.526   1.556
 83 A    84 A    85 A    86 A    87 A    88 A    89 A    90 A                  
  1.586   1.657   1.747   1.779   2.002   2.062   2.072   2.116
 91 A    92 A    93 A    94 A    95 A    96 A    97 A    98 A                  
  2.154   2.155   2.282   2.302   2.888   2.932   2.943   2.945
 99 A   100 A   101 A   102 A   103 A   104 A   105 A   106 A                  
  2.948   2.961   2.963   2.967   3.067   3.294   3.299   3.314
107 A   108 A   109 A   110 A   111 A   112 A   113 A   114 A                  
  3.331   3.495   3.496   3.621   3.656   3.758   3.770   3.826
115 A   116 A   117 A   118 A   119 A   120 A   121 A   122 A                  
  3.849   3.855   4.138   4.236   4.350
123 A   124 A   125 A   126 A   127 A                                          
 
 Beta MOs, Restricted
 -- Occupied --                  
-261.37  -31.94  -27.42  -27.42  -27.41  -20.66  -20.66  -20.64
  1 A     2 A     3 A     4 A     5 A     6 A     7 A     8 A                  
-11.384 -11.384 -11.369  -4.141  -2.730  -2.723  -2.713  -1.496
  9 A    10 A    11 A    12 A    13 A    14 A    15 A    16 A                  
 -1.496  -1.477  -0.822  -0.800  -0.786  -0.687  -0.649  -0.635
 17 A    18 A    19 A    20 A    21 A    22 A    23 A    24 A                  
 -0.634  -0.627  -0.626  -0.620  -0.595  -0.593  -0.526  -0.524
 25 A    26 A    27 A    28 A    29 A    30 A    31 A    32 A                  
 -0.476  -0.231
 33 A    34 A                                                                  
 -- Virtual --                   
  0.002   0.053   0.096   0.108   0.115   0.120   0.122   0.153
 35 A    36 A    37 A    38 A    39 A    40 A    41 A    42 A                  
  0.156   0.219   0.222   0.256   0.306   0.326   0.345   0.394
 43 A    44 A    45 A    46 A    47 A    48 A    49 A    50 A                  
  0.408   0.438   0.488   0.532   0.569   0.594   0.633   0.737
 51 A    52 A    53 A    54 A    55 A    56 A    57 A    58 A                  
  0.758   0.789   0.797   0.812   0.833   0.868   0.894   0.897
 59 A    60 A    61 A    62 A    63 A    64 A    65 A    66 A                  
  0.983   1.017   1.026   1.034   1.172   1.236   1.239   1.258
 67 A    68 A    69 A    70 A    71 A    72 A    73 A    74 A                  
  1.274   1.285   1.293   1.302   1.339   1.350   1.360   1.362
 75 A    76 A    77 A    78 A    79 A    80 A    81 A    82 A                  
  1.375   1.417   1.433   1.437   1.465   1.517   1.526   1.556
 83 A    84 A    85 A    86 A    87 A    88 A    89 A    90 A                  
  1.586   1.657   1.747   1.779   2.002   2.062   2.072   2.116
 91 A    92 A    93 A    94 A    95 A    96 A    97 A    98 A                  
  2.154   2.155   2.282   2.302   2.888   2.932   2.943   2.945
 99 A   100 A   101 A   102 A   103 A   104 A   105 A   106 A                  
  2.948   2.961   2.963   2.967   3.067   3.294   3.299   3.314
107 A   108 A   109 A   110 A   111 A   112 A   113 A   114 A                  
  3.331   3.495   3.496   3.621   3.656   3.758   3.770   3.826
115 A   116 A   117 A   118 A   119 A   120 A   121 A   122 A                  
  3.849   3.855   4.138   4.236   4.350
123 A   124 A   125 A   126 A   127 A                                          

 Occupation and symmetry of molecular orbitals

 Point group: C1 (1 irreducible representation).

                           A     All 
 -------------------------------------
 All molecular orbitals:
  - Alpha                  127   127 
  - Beta                   127   127 
 -------------------------------------
 Alpha orbitals:
  - Frozen occupied        15    15  
  - Active occupied        19    19  
  - Active virtual         93    93  
  - Frozen virtual         0     0   
 -------------------------------------
 Beta orbitals:
  - Frozen occupied        15    15  
  - Active occupied        19    19  
  - Active virtual         93    93  
  - Frozen virtual         0     0   
 -------------------------------------

 Import integrals:   CPU 0.00 s  wall 0.00 s

 Import integrals:   CPU 85.11 s  wall 5.79 s

 MP2 amplitudes:   CPU 6.24 s  wall 0.24 s

Running a double precision version
           CCSD T amplitudes will be solved using DIIS.

           Start     Size      MaxIter   EConv     TConv     
           3         7         200       1.00e-07  1.00e-05  
 ------------------------------------------------------------------------------
           Energy (a.u.)   Ediff      Tdiff       Comment
 ------------------------------------------------------------------------------
         -1601.71882198                           
     1   -1601.57503820   1.44e-01   8.23e-01     
     2   -1601.72129988   1.46e-01   1.39e-01     
     3   -1601.66191599   5.94e-02   1.06e-01     
     4   -1601.70035300   3.84e-02   1.69e-01     Switched to DIIS steps.
     5   -1601.72266184   2.23e-02   3.86e-02     
     6   -1601.73861930   1.60e-02   3.40e-02     
     7   -1601.74131437   2.70e-03   1.56e-02     
     8   -1601.74792059   6.61e-03   2.41e-02     
     9   -1601.74946976   1.55e-03   6.76e-03     
    10   -1601.74994194   4.72e-04   3.63e-03     
    11   -1601.75100899   1.07e-03   4.92e-03     
    12   -1601.75170197   6.93e-04   3.35e-03     
    13   -1601.75171562   1.37e-05   2.61e-03     
    14   -1601.75203336   3.18e-04   1.29e-03     
    15   -1601.75203628   2.92e-06   6.70e-04     
    16   -1601.75209165   5.54e-05   5.33e-04     
    17   -1601.75214578   5.41e-05   2.03e-04     
    18   -1601.75215888   1.31e-05   1.45e-04     
    19   -1601.75219707   3.82e-05   1.17e-04     
    20   -1601.75221768   2.06e-05   1.30e-04     
    21   -1601.75225518   3.75e-05   1.80e-04     
    22   -1601.75227838   2.32e-05   1.36e-04     
    23   -1601.75228539   7.02e-06   7.57e-05     
    24   -1601.75228994   4.54e-06   7.35e-05     
    25   -1601.75228770   2.24e-06   5.92e-05     
    26   -1601.75228856   8.65e-07   5.96e-05     
    27   -1601.75228529   3.27e-06   3.29e-05     
    28   -1601.75228628   9.90e-07   2.51e-05     
    29   -1601.75228400   2.28e-06   1.59e-05     
    30   -1601.75228439   3.91e-07   8.36e-06     
    31   -1601.75228327   1.12e-06   4.53e-06     
    32   -1601.75228294   3.27e-07   4.31e-06     
    33   -1601.75228201   9.25e-07   3.34e-06     
    34   -1601.75228119   8.24e-07   4.32e-06     
    35   -1601.75227975   1.44e-06   5.59e-06     
    36   -1601.75227923   5.21e-07   3.84e-06     
    37   -1601.75227849   7.40e-07   3.36e-06     
    38   -1601.75227822   2.62e-07   3.79e-06     
    39   -1601.75227776   4.59e-07   2.80e-06     
    40   -1601.75227771   5.08e-08   1.64e-06     
 ------------------------------------------------------------------------------
         -1601.75227771                           CCSD T converged.

End of double precision
 SCF energy                 = -1600.44296513
 MP2 energy                 = -1601.71882198
 CCSD correlation energy    =    -1.30931258
 CCSD total energy          = -1601.75227771

 CCSD  T1^2 = 1.3761  T2^2 = 0.6507  Leading amplitudes:

 Amplitude    Orbitals with energies
 -0.3710       34 (A) A                  ->    36 (A) A                   
              -0.2307                          0.0533                     
 -0.3710       34 (A) B                  ->    36 (A) B                   
              -0.2307                          0.0533                     
 -0.3030       34 (A) A                  ->    35 (A) A                   
              -0.2307                          0.0022                     
 -0.3030       34 (A) B                  ->    35 (A) B                   
              -0.2307                          0.0022                     
 -0.2958       34 (A) A                  ->    43 (A) A                   
              -0.2307                          0.1562                     
 -0.2958       34 (A) B                  ->    43 (A) B                   
              -0.2307                          0.1562                     
  0.1862       34 (A) A                  ->    45 (A) A                   
              -0.2307                          0.2216                     
  0.1862       34 (A) B                  ->    45 (A) B                   
              -0.2307                          0.2216                     
  0.1700       32 (A) A                  ->    40 (A) A                   
              -0.5240                          0.1200                     
  0.1700       32 (A) B                  ->    40 (A) B                   
              -0.5240                          0.1200                     
  0.1671       32 (A) A                  ->    35 (A) A                   
              -0.5240                          0.0022                     
  0.1671       32 (A) B                  ->    35 (A) B                   
              -0.5240                          0.0022                     
 -0.1633       31 (A) A                  ->    38 (A) A                   
              -0.5256                          0.1081                     
 -0.1633       31 (A) B                  ->    38 (A) B                   
              -0.5256                          0.1081                     
 -0.1613       34 (A) A                  ->    42 (A) A                   
              -0.2307                          0.1531                     
 -0.1613       34 (A) B                  ->    42 (A) B                   
              -0.2307                          0.1531                     
  0.1599       34 (A) A                  ->    47 (A) A                   
              -0.2307                          0.3056                     
  0.1599       34 (A) B                  ->    47 (A) B                   
              -0.2307                          0.3056                     
 -0.1490       33 (A) A                  ->    37 (A) A                   
              -0.4755                          0.0958                     
 -0.1490       33 (A) B                  ->    37 (A) B                   
              -0.4755                          0.0958                     
  0.1460       34 (A) A                  ->    39 (A) A                   
              -0.2307                          0.1147                     
  0.1460       34 (A) B                  ->    39 (A) B                   
              -0.2307                          0.1147                     
  0.1341       33 (A) A                  ->    38 (A) A                   
              -0.4755                          0.1081                     
  0.1341       33 (A) B                  ->    38 (A) B                   
              -0.4755                          0.1081                     
  0.1164       33 (A) A                  ->    41 (A) A                   
              -0.4755                          0.1222                     
  0.1164       33 (A) B                  ->    41 (A) B                   
              -0.4755                          0.1222                     

 Amplitude    Orbitals with energies
 -0.0467       34 (A) A      34 (A) B    ->    46 (A) A      46 (A) B     
              -0.2307       -0.2307            0.2563        0.2563       
  0.0467       34 (A) A      34 (A) B    ->    46 (A) B      46 (A) A     
              -0.2307       -0.2307            0.2563        0.2563       
  0.0467       34 (A) B      34 (A) A    ->    46 (A) A      46 (A) B     
              -0.2307       -0.2307            0.2563        0.2563       
 -0.0467       34 (A) B      34 (A) A    ->    46 (A) B      46 (A) A     
              -0.2307       -0.2307            0.2563        0.2563       

[...]
   28   -1600.4487850916      2.43e-05   Normal BFGS step
   29   -1600.4487851150      2.78e-05   Normal BFGS step
   30   -1600.4487851430      2.19e-05   Normal BFGS step
   31   -1600.4487851849      2.14e-05   Normal BFGS step
   32   -1600.4487852001      1.83e-05   Normal BFGS step
   33   -1600.4487852086      1.06e-05   Normal BFGS step
   34   -1600.4487852128      8.67e-06   Normal BFGS step
   35   -1600.4487852161      7.36e-06   Normal BFGS step
   36   -1600.4487852193      9.51e-06   Normal BFGS step
   37   -1600.4487852229      1.36e-05   Normal BFGS step
   38   -1600.4487852260      1.32e-05   Normal BFGS step
   39   -1600.4487852279      8.42e-06   Normal BFGS step
   40   -1600.4487852287      3.23e-06   Normal BFGS step
   41   -1600.4487852290      1.67e-06   Normal BFGS step
   42   -1600.4487852291      1.18e-06   Normal BFGS step
   43   -1600.4487852291      8.87e-07   Normal BFGS step
   44   -1600.4487852291      7.19e-07   Normal BFGS step
   45   -1600.4487852291      5.07e-07   Normal BFGS step
   46   -1600.4487852291      3.79e-07   Normal BFGS step
   47   -1600.4487852291      2.86e-07   Normal BFGS step
   48   -1600.4487852292      2.69e-07   Normal BFGS step
   49   -1600.4487852292      2.32e-07   Normal BFGS step
   50   -1600.4487852292      2.11e-07   Normal BFGS step
   51   -1600.4487852292      2.41e-07   Normal BFGS step
   52   -1600.4487852292      1.10e-07   Normal BFGS step
   53   -1600.4487852292      5.83e-08  Convergence criterion met
 ---------------------------------------
 SCF time:   CPU 4392.53s  wall 568.00s 
 SCF   energy in the final basis set =    -1600.4487852292
 Total energy in the final basis set =    -1600.4487852292


 ------------------------------------------------------------------------------

   CCMAN2: suite of methods based on coupled cluster
           and equation of motion theories.

   Components:
   * libvmm-1.3-trunk
     by Evgeny Epifanovsky, Ilya Kaliman.
   * libtensor-2.5-trunk
     by Evgeny Epifanovsky, Michael Wormit, Dmitry Zuev, Sam Manzer, 
        Ilya Kaliman.
   * libcc-2.5-trunk
     by Evgeny Epifanovsky, Arik Landau, Tomasz Kus, Kirill Khistyaev, 
        Dmitry Zuev, Prashant Manohar, Xintian Feng, Anna Krylov, 
        Matthew Goldey, Alec White, Thomas Jagau, Kaushik Nanda, 
        Anastasia Gunina, Alexander Kunitsa, Joonho Lee.

   CCMAN original authors:
   Anna I. Krylov, C. David Sherrill, Steven R. Gwaltney,
   Edward F. C. Byrd (2000)
   Sergey V. Levchenko, Lyudmila V. Slipchenko, Tao Wang,
   Ana-Maria C. Cristian (2003)
   Piotr A. Pieniazek, C. Melania Oana, Evgeny Epifanovsky (2007)
   Prashant Manohar (2009)

 ------------------------------------------------------------------------------


 Calculation will run on 32 cores using libxm for tensor contractions

 ------------------------------------------------------------------------------
Libxm Tensor Library
Copyright (c) 2014-2018 Ilya Kaliman
https://github.com/ilyak/libxm
Reference: https://dx.doi.org/10.1002/jcc.24713
 ------------------------------------------------------------------------------

 
 Alpha MOs, Restricted
 -- Occupied --                  
-261.40  -31.96  -27.45  -27.45  -27.44  -20.67  -20.67  -20.64
  1 A     2 A     3 A     4 A     5 A     6 A     7 A     8 A                  
-11.392 -11.389 -11.368  -4.172  -2.755  -2.754  -2.745  -1.510
  9 A    10 A    11 A    12 A    13 A    14 A    15 A    16 A                  
 -1.508  -1.491  -0.826  -0.809  -0.790  -0.696  -0.658  -0.647
 17 A    18 A    19 A    20 A    21 A    22 A    23 A    24 A                  
 -0.644  -0.638  -0.637  -0.629  -0.608  -0.604  -0.557  -0.549
 25 A    26 A    27 A    28 A    29 A    30 A    31 A    32 A                  
 -0.527  -0.211
 33 A    34 A                                                                  
 -- Virtual --                   
  0.005   0.050   0.087   0.103   0.114   0.120   0.125   0.139
 35 A    36 A    37 A    38 A    39 A    40 A    41 A    42 A                  
  0.154   0.208   0.213   0.248   0.299   0.324   0.354   0.397
 43 A    44 A    45 A    46 A    47 A    48 A    49 A    50 A                  
  0.415   0.433   0.495   0.533   0.562   0.570   0.628   0.723
 51 A    52 A    53 A    54 A    55 A    56 A    57 A    58 A                  
  0.745   0.787   0.795   0.797   0.831   0.862   0.881   0.901
 59 A    60 A    61 A    62 A    63 A    64 A    65 A    66 A                  
  0.984   0.996   1.020   1.025   1.149   1.239   1.246   1.264
 67 A    68 A    69 A    70 A    71 A    72 A    73 A    74 A                  
  1.271   1.284   1.287   1.300   1.321   1.324   1.355   1.367
 75 A    76 A    77 A    78 A    79 A    80 A    81 A    82 A                  
  1.369   1.396   1.433   1.436   1.453   1.456   1.520   1.568
 83 A    84 A    85 A    86 A    87 A    88 A    89 A    90 A                  
  1.580   1.688   1.701   1.717   1.944   2.027   2.083   2.113
 91 A    92 A    93 A    94 A    95 A    96 A    97 A    98 A                  
  2.140   2.145   2.265   2.267   2.766   2.918   2.933   2.938
 99 A   100 A   101 A   102 A   103 A   104 A   105 A   106 A                  
  2.939   2.947   2.959   2.963   3.165   3.282   3.298   3.304
107 A   108 A   109 A   110 A   111 A   112 A   113 A   114 A                  
  3.334   3.416   3.507   3.559   3.660   3.679   3.699   3.826
115 A   116 A   117 A   118 A   119 A   120 A   121 A   122 A                  
  3.840   3.858   4.066   4.221   4.251
123 A   124 A   125 A   126 A   127 A                                          
 
 Beta MOs, Restricted
 -- Occupied --                  
-261.40  -31.96  -27.45  -27.45  -27.44  -20.67  -20.67  -20.64
  1 A     2 A     3 A     4 A     5 A     6 A     7 A     8 A                  
-11.392 -11.389 -11.368  -4.172  -2.755  -2.754  -2.745  -1.510
  9 A    10 A    11 A    12 A    13 A    14 A    15 A    16 A                  
 -1.508  -1.491  -0.826  -0.809  -0.790  -0.696  -0.658  -0.647
 17 A    18 A    19 A    20 A    21 A    22 A    23 A    24 A                  
 -0.644  -0.638  -0.637  -0.629  -0.608  -0.604  -0.557  -0.549
 25 A    26 A    27 A    28 A    29 A    30 A    31 A    32 A                  
 -0.527  -0.211
 33 A    34 A                                                                  
 -- Virtual --                   
  0.005   0.050   0.087   0.103   0.114   0.120   0.125   0.139
 35 A    36 A    37 A    38 A    39 A    40 A    41 A    42 A                  
  0.154   0.208   0.213   0.248   0.299   0.324   0.354   0.397
 43 A    44 A    45 A    46 A    47 A    48 A    49 A    50 A                  
  0.415   0.433   0.495   0.533   0.562   0.570   0.628   0.723
 51 A    52 A    53 A    54 A    55 A    56 A    57 A    58 A                  
  0.745   0.787   0.795   0.797   0.831   0.862   0.881   0.901
 59 A    60 A    61 A    62 A    63 A    64 A    65 A    66 A                  
  0.984   0.996   1.020   1.025   1.149   1.239   1.246   1.264
 67 A    68 A    69 A    70 A    71 A    72 A    73 A    74 A                  
  1.271   1.284   1.287   1.300   1.321   1.324   1.355   1.367
 75 A    76 A    77 A    78 A    79 A    80 A    81 A    82 A                  
  1.369   1.396   1.433   1.436   1.453   1.456   1.520   1.568
 83 A    84 A    85 A    86 A    87 A    88 A    89 A    90 A                  
  1.580   1.688   1.701   1.717   1.944   2.027   2.083   2.113
 91 A    92 A    93 A    94 A    95 A    96 A    97 A    98 A                  
  2.140   2.145   2.265   2.267   2.766   2.918   2.933   2.938
 99 A   100 A   101 A   102 A   103 A   104 A   105 A   106 A                  
  2.939   2.947   2.959   2.963   3.165   3.282   3.298   3.304
107 A   108 A   109 A   110 A   111 A   112 A   113 A   114 A                  
  3.334   3.416   3.507   3.559   3.660   3.679   3.699   3.826
115 A   116 A   117 A   118 A   119 A   120 A   121 A   122 A                  
  3.840   3.858   4.066   4.221   4.251
123 A   124 A   125 A   126 A   127 A                                          

 Occupation and symmetry of molecular orbitals

 Point group: C1 (1 irreducible representation).

                           A     All 
 -------------------------------------
 All molecular orbitals:
  - Alpha                  127   127 
  - Beta                   127   127 
 -------------------------------------
 Alpha orbitals:
  - Frozen occupied        15    15  
  - Active occupied        19    19  
  - Active virtual         93    93  
  - Frozen virtual         0     0   
 -------------------------------------
 Beta orbitals:
  - Frozen occupied        15    15  
  - Active occupied        19    19  
  - Active virtual         93    93  
  - Frozen virtual         0     0   
 -------------------------------------

 Import integrals:   CPU 0.00 s  wall 0.00 s

 Import integrals:   CPU 81.85 s  wall 5.56 s

 MP2 amplitudes:   CPU 6.50 s  wall 0.70 s

Running a double precision version
           CCSD T amplitudes will be solved using DIIS.

           Start     Size      MaxIter   EConv     TConv     
           3         7         200       1.00e-07  1.00e-05  
 ------------------------------------------------------------------------------
           Energy (a.u.)   Ediff      Tdiff       Comment
 ------------------------------------------------------------------------------
         -1601.65950729                           
     1   -1601.56166141   9.78e-02   8.56e-01     
     2   -1601.67021712   1.09e-01   1.28e-01     
     3   -1601.63998055   3.02e-02   7.45e-02     
     4   -1601.66654366   2.66e-02   8.65e-02     Switched to DIIS steps.
     5   -1601.68457696   1.80e-02   1.01e-02     
     6   -1601.70274420   1.82e-02   2.20e-02     
     7   -1601.71265041   9.91e-03   1.53e-02     
     8   -1601.74613175   3.35e-02   5.92e-02     
     9   -1601.74488150   1.25e-03   8.94e-02     
    10   -1601.74324812   1.63e-03   5.52e-02     
    11   -1601.74479233   1.54e-03   3.38e-03     
    12   -1601.74515666   3.64e-04   4.90e-03     
    13   -1601.74709431   1.94e-03   6.37e-03     
    14   -1601.74788790   7.94e-04   2.83e-03     
    15   -1601.74885928   9.71e-04   2.32e-04     
    16   -1601.74886254   3.26e-06   1.91e-03     
    17   -1601.74973322   8.71e-04   3.29e-03     
    18   -1601.74985350   1.20e-04   1.24e-03     
    19   -1601.74974356   1.10e-04   1.16e-03     
    20   -1601.74970583   3.77e-05   1.87e-03     
    21   -1601.74970601   1.72e-07   1.02e-03     
    22   -1601.74940356   3.02e-04   3.22e-03     
    23   -1601.74924118   1.62e-04   2.63e-03     
    24   -1601.74942876   1.88e-04   3.09e-03     
    25   -1601.74948276   5.40e-05   4.96e-04     
    26   -1601.74963914   1.56e-04   2.27e-04     
    27   -1601.74960725   3.19e-05   3.22e-04     
    28   -1601.74962949   2.22e-05   2.50e-05     
    29   -1601.74995226   3.23e-04   2.05e-03     
    30   -1601.74958859   3.64e-04   9.78e-04     
    31   -1601.74926308   3.26e-04   9.16e-04     
    32   -1601.74955030   2.87e-04   8.21e-04     
    33   -1601.74943509   1.15e-04   1.24e-03     
    34   -1601.75018319   7.48e-04   2.94e-03     
    35   -1601.75139797   1.21e-03   5.40e-03     
    36   -1601.75085865   5.39e-04   3.37e-03     
    37   -1601.75040211   4.57e-04   7.92e-03     
    38   -1601.75039907   3.04e-06   1.55e-03     
    39   -1601.75055789   1.59e-04   2.42e-03     
    40   -1601.75044448   1.13e-04   1.28e-03     
    41   -1601.75037598   6.85e-05   3.81e-03     
    42   -1601.75125184   8.76e-04   9.40e-03     
    43   -1601.75097578   2.76e-04   6.32e-03     
    44   -1601.75048782   4.88e-04   4.19e-03     
    45   -1601.74866305   1.82e-03   4.46e-02     
    46   -1601.75060454   1.94e-03   3.40e-02     
    47   -1601.75309850   2.49e-03   1.68e-01     
    48   -1601.75311564   1.71e-05   1.91e-03     
    49   -1601.75339162   2.76e-04   2.98e-01     
    50   -1601.75274320   6.48e-04   2.00e-01     
    51   -1601.75289830   1.55e-04   1.46e-01     
    52   -1601.75256851   3.30e-04   6.98e-02     
    53   -1601.74947397   3.09e-03   5.63e-01     
    54   -1601.74818587   1.29e-03   4.33e-02     
    55   -1601.74784618   3.40e-04   1.01e-02     
    56   -1601.74748654   3.60e-04   1.04e-02     
    57   -1601.74810622   6.20e-04   1.89e-02     
    58   -1601.75081526   2.71e-03   5.09e-02     
    59   -1601.75177171   9.56e-04   1.06e-02     
    60   -1601.75350980   1.74e-03   9.23e-02     
    61   -1601.75245303   1.06e-03   7.05e-02     
    62   -1601.75263397   1.81e-04   3.24e-02     
    63   -1601.75233053   3.03e-04   8.78e-03     
    64   -1601.75194936   3.81e-04   2.92e-02     
    65   -1601.75091946   1.03e-03   1.93e-02     
    66   -1601.74989979   1.02e-03   8.91e-03     
    67   -1601.75169411   1.79e-03   5.05e-03     
    68   -1601.75295973   1.27e-03   4.70e-02     
    69   -1601.75303420   7.45e-05   3.41e-03     
    70   -1601.75363018   5.96e-04   7.31e-02     
    71   -1601.75291837   7.12e-04   6.35e-02     
    72   -1601.74895080   3.97e-03   1.10e-02     
    73   -1601.75209259   3.14e-03   6.28e-02     
    74   -1601.75362379   1.53e-03   2.02e-01     
    75   -1601.75334752   2.76e-04   1.08e-01     
    76   -1601.75357252   2.25e-04   2.96e-02     
    77   -1601.75345882   1.14e-04   8.55e-03     
    78   -1601.75345616   2.66e-06   5.80e-03     
    79   -1601.75010834   3.35e-03   5.56e-02     
    80   -1601.74836757   1.74e-03   5.11e-02     
    81   -1601.74625250   2.12e-03   7.75e-02     
    82   -1601.74581130   4.41e-04   1.27e-02     
    83   -1601.75095888   5.15e-03   1.49e-01     
    84   -1601.75271119   1.75e-03   3.34e-02     
    85   -1601.75291859   2.07e-04   1.41e-02     
    86   -1601.75320380   2.85e-04   5.24e-02     
    87   -1601.75208640   1.12e-03   9.61e-02     
    88   -1601.75271428   6.28e-04   1.14e-01     
    89   -1601.75292164   2.07e-04   1.88e-01     
    90   -1601.74806847   4.85e-03   2.20e-01     
    91   -1601.74809643   2.80e-05   9.42e-03     
    92   -1601.74535964   2.74e-03   1.10e-01     
    93   -1601.75247697   7.12e-03   7.23e-04     
    94   -1601.74976301   2.71e-03   9.14e-01     
    95   -1601.75159354   1.83e-03   3.68e-01     
    96   -1601.75159365   1.04e-07   2.89e-04     
    97   -1601.75182525   2.32e-04   4.30e-02     
    98   -1601.75235518   5.30e-04   1.08e-01     
    99   -1601.75302362   6.68e-04   4.04e-01     
   100   -1601.75058889   2.43e-03   1.64e-01     
   101   -1601.75001034   5.79e-04   4.27e-02     
   102   -1601.74958932   4.21e-04   1.80e-02     
   103   -1601.74964429   5.50e-05   2.70e-03     
   104   -1601.75039744   7.53e-04   4.80e-02     
   105   -1601.74797374   2.42e-03   4.61e-02     
   106   -1601.75088219   2.91e-03   1.02e-01     
   107   -1601.75286346   1.98e-03   7.68e-02     
   108   -1601.75317763   3.14e-04   1.33e-01     
   109   -1601.75179961   1.38e-03   1.69e-01     
   110   -1601.75220030   4.01e-04   4.69e-02     
   111   -1601.75231224   1.12e-04   3.37e-02     
   112   -1601.75164332   6.69e-04   3.46e-02     
   113   -1601.74958219   2.06e-03   1.09e-02     
   114   -1601.75283901   3.26e-03   7.31e-02     
   115   -1601.75273261   1.06e-04   3.79e-01     
   116   -1601.75261655   1.16e-04   4.39e-01     
   117   -1601.75242112   1.95e-04   5.97e-05     
   118   -1601.75253411   1.13e-04   3.91e-02     
   119   -1601.75143900   1.10e-03   1.06e-02     
   120   -1601.75140971   2.93e-05   7.31e-03     
   121   -1601.74949577   1.91e-03   6.89e-03     
   122   -1601.74966127   1.65e-04   1.41e-02     
   123   -1601.75056148   9.00e-04   2.18e-02     
   124   -1601.74909856   1.46e-03   4.76e-02     
   125   -1601.74627721   2.82e-03   7.48e-02     
   126   -1601.74816479   1.89e-03   1.22e-01     
   127   -1601.74331359   4.85e-03   2.18e-01     
   128   -1601.75202058   8.71e-03   1.89e-01     
   129   -1601.75191060   1.10e-04   5.06e-01     
   130   -1601.75177513   1.35e-04   5.06e-01     
   131   -1601.75128900   4.86e-04   2.06e-02     
   132   -1601.75005179   1.24e-03   3.54e-03     
   133   -1601.74681408   3.24e-03   9.38e-02     
   134   -1601.74687170   5.76e-05   3.27e-04     
   135   -1601.74675294   1.19e-04   7.45e-03     
   136   -1601.74767159   9.19e-04   3.41e-02     
   137   -1601.75226191   4.59e-03   3.26e-01     
   138   -1601.75165023   6.12e-04   3.86e-01     
   139   -1601.74051728   1.11e-02   3.70e-01     
   140   -1601.74161486   1.10e-03   5.27e-02     
   141   -1601.73664419   4.97e-03   2.42e-01     
   142   -1601.73814108   1.50e-03   7.36e-02     
   143   -1601.73675422   1.39e-03   6.97e-02     
   144   -1601.73666048   9.37e-05   4.79e-03     
   145   -1601.75178972   1.51e-02   5.89e-02     
   146   -1601.64899807   1.03e-01   3.74e+00     
   147   -1601.70733562   5.83e-02   2.36e+00     
   148   -1601.64556931   6.18e-02   2.49e+00     
   149   -1601.47575856   1.70e-01   6.17e+00     
   150   -1601.74857519   2.73e-01   1.06e+01     
   151   -1601.74804186   5.33e-04   1.04e-02     
   152   -1601.75172383   3.68e-03   4.09e-01     
   153   -1601.74572771   6.00e-03   3.06e-01     
   154   -1601.74670306   9.75e-04   4.57e-02     
   155   -1601.73857137   8.13e-03   3.94e-01     
   156   -1601.73481405   3.76e-03   1.86e-01     
   157   -1601.73898996   4.18e-03   2.09e-01     
   158   -1601.74337260   4.38e-03   2.25e-01     
   159   -1601.74225956   1.11e-03   4.80e-02     
   160   -1601.75059331   8.33e-03   3.06e-01     
   161   -1601.74972021   8.73e-04   6.34e-03     
   162   -1601.74209865   7.62e-03   2.29e+00     
   163   -1601.72527458   1.68e-02   1.71e+00     
   164   -1601.72604117   7.67e-04   1.14e-02     
   165   -1601.74669567   2.07e-02   2.44e+00     
   166   -1601.74519166   1.50e-03   1.38e+00     
   167   -1601.74359934   1.59e-03   7.93e-02     
   168   -1601.72389278   1.97e-02   9.44e-01     
   169   -1601.72476877   8.76e-04   4.06e-02     
   170   -1601.73743098   1.27e-02   6.02e-01     
   171   -1601.74335151   5.92e-03   2.79e-01     
   172   -1601.74242723   9.24e-04   4.78e-02     
   173   -1601.74981516   7.39e-03   3.38e-01     
   174   -1601.75118355   1.37e-03   3.23e-02     
   175   -1601.75188189   6.98e-04   4.63e-02     
   176   -1601.75151674   3.65e-04   2.71e-02     
   177   -1601.73821051   1.33e-02   4.85e-01     
   178   -1601.73560760   2.60e-03   1.24e-01     
   179   -1601.73393268   1.67e-03   8.03e-02     
   180   -1601.74876998   1.48e-02   6.76e-01     
   181   -1601.74840359   3.66e-04   7.72e-03     
   182   -1601.75164183   3.24e-03   1.11e-02     
   183   -1601.75144280   1.99e-04   7.71e-03     
   184   -1601.75180016   3.57e-04   2.08e-02     
   185   -1601.75153366   2.66e-04   1.89e-02     
   186   -1601.74637404   5.16e-03   1.09e-01     
   187   -1601.75173800   5.36e-03   6.43e-02     
   188   -1601.75284882   1.11e-03   1.65e-01     
   189   -1601.75225102   5.98e-04   1.24e-01     
   190   -1601.75189395   3.57e-04   2.18e-02     
   191   -1601.75254181   6.48e-04   6.23e-02     
   192   -1601.75267958   1.38e-04   3.00e-02     
   193   -1601.75177969   9.00e-04   9.73e-02     
   194   -1601.74983795   1.94e-03   1.39e-02     
   195   -1601.75006315   2.25e-04   5.18e-03     
   196   -1601.75146995   1.41e-03   3.43e-03     
   197   -1601.75140481   6.51e-05   2.77e-03     
   198   -1601.75109510   3.10e-04   5.58e-03     
   199   -1601.75246481   1.37e-03   4.49e-02     

End of double precision
 CCSD iterations did not converge.

 CCSD calculation:   CPU 19527.78 s  wall 766.70 s

 Transferring MO TPDM to AO TPDM
g2_o1o1o1o1 is not found in context! 

 Q-Chem fatal error occurred in module /global/home/groups-sw/mhg/qchem_public/qchem_6101/ccman2/qchem/ccman2_main.C, line 26:

 TPDM is not correctly computed!


 Please submit a crash report at q-chem.com/reporter 
 
 
