                  Welcome to Q-Chem
     A Quantum Leap Into The Future Of Chemistry


 Q-Chem 6.1 (devel), Q-Chem, Inc., Pleasanton, CA (2022)

 E. Epifanovsky,  A. T. B. Gilbert,  Xintian Feng,  Joonho Lee,  Yuezhi Mao,  
 N. Mardirossian,  P. Pokhilko,  A. White,  M. Wormit,  M. P. Coons,  
 A. L. Dempwolff,  Zhengting Gan,  D. Hait,  P. R. Horn,  L. D. Jacobson,  
 I. Kaliman,  J. Kussmann,  A. W. Lange,  Ka Un Lao,  D. S. Levine,  Jie Liu,  
 S. C. McKenzie,  A. F. Morrison,  K. D. Nanda,  F. Plasser,  D. R. Rehn,  
 M. L. Vidal,  Zhi-Qiang You,  Ying Zhu,  B. Alam,  B. Albrecht,  
 A. Aldossary,  E. Alguire,  J. H. Andersen,  V. Athavale,  D. Barton,  
 K. Begam,  A. Behn,  N. Bellonzi,  Y. A. Bernard,  E. J. Berquist,  
 H. Burton,  A. Carreras,  K. Carter-Fenk,  Mathew Chow,  Romit Chakraborty,  
 Chandrima Chakravarty,  Junhan Chen,  A. D. Chien,  K. D. Closser,  
 V. Cofer-Shabica,  L. Cunha,  S. Dasgupta,  Jia Deng,  M. de Wergifosse,  
 M. Diedenhofen,  Hainam Do,  S. Ehlert,  Po-Tung Fang,  S. Fatehi,  
 Qingguo Feng,  T. Friedhoff,  Thomas Froitzheim,  B. Ganoe,  J. Gayvert,  
 Qinghui Ge,  G. Gidofalvi,  M. Gimferrer,  M. Goldey,  Montgomery Gray,  
 J. Gomes,  C. Gonzalez-Espinoza,  S. Gulania,  A. Gunina,  J. A. Gyamfi,  
 M. W. D. Hanson-Heine,  P. H. P. Harbach,  A. W. Hauser,  M. F. Herbst,  
 M. Hernandez Vera,  M. Hodecker,  Z. C. Holden,  S. Houck,  Xunkun Huang,  
 Kerwin Hui,  B. C. Huynh,  K. Ikeda,  M. Ivanov,  Hyunjun Ji,  Zuxin Jin,  
 Hanjie Jiang,  Subrata Jana,  B. Kaduk,  S. Kaehler,  R. Kang,  
 K. Khistyaev,  Jaehoon Kim,  Yongbin Kim,  P. Klunzinger,  Z. Koczor-Benda,  
 Joong Hoon Koh,  D. Kosenkov,  Saikiran Kotaru,  L. Koulias,  T. Kowalczyk,  
 C. M. Krauter,  K. Kue,  A. Kunitsa,  T. Kus,  A. Landau,  K. V. Lawler,  
 D. Lefrancois,  S. Lehtola,  Rain Li,  Shaozhi Li,  Yi-Pei Li,  
 Jiashu Liang,  M. Liebenthal,  Hung-Hsuan Lin,  You-Sheng Lin,  Fenglai Liu,  
 Kuan-Yu Liu,  Xiao Liu,  M. Loipersberger,  A. Luenser,  C. Malbon,  
 A. Manjanath,  P. Manohar,  E. Mansoor,  S. F. Manzer,  Shan-Ping Mao,  
 A. V. Marenich,  T. Markovich,  S. Mason,  F. Matz,  S. A. Maurer,  
 P. F. McLaughlin,  M. F. S. J. Menger,  J.-M. Mewes,  S. A. Mewes,  
 P. Morgante,  Mohammad Mostafanejad,  J. W. Mullinax,  K. J. Oosterbaan,  
 G. Paran,  V. Parravicini,  Alexander C. Paul,  Suranjan K. Paul,  
 F. Pavosevic,  Zheng Pei,  S. Prager,  E. I. Proynov,  E. Ramos,  B. Rana,  
 A. E. Rask,  A. Rettig,  R. M. Richard,  F. Rob,  E. Rossomme,  T. Scheele,  
 M. Scheurer,  M. Schneider,  P. E. Schneider,  Tim K. Schramm,  N. Sergueev,  
 S. M. Sharada,  M. Sharma,  Hengyuan Shen,  W. Skomorowski,  D. W. Small,  
 C. J. Stein,  Alistair J. Sterling,  Yingli Su,  Yu-Chuan Su,  
 E. J. Sundstrom,  J. Talbot,  Zhen Tao,  J. Thirman,  Hung-Yi Tsai,  
 T. Tsuchimochi,  N. M. Tubman,  C. Utku,  S. P. Veccham,  O. Vydrov,  
 J. Wenzel,  Jonathan Wong,  J. Witte,  A. Yamada,  Chou-Hsun Yang,  Kun Yao,  
 S. Yeganeh,  S. R. Yost,  A. Zech,  F. Zeller,  Igor Ying Zhang,  
 Xing Zhang,  Yu Zhang,  D. Zuev,  A. Aspuru-Guzik,  A. T. Bell,  
 N. A. Besley,  K. B. Bravaya,  B. R. Brooks,  D. Casanova,  Jeng-Da Chai,  
 Hsing-Ta Chen,  S. Coriani,  C. J. Cramer,  A. E. DePrince, III,  
 R. A. DiStasio Jr.,  A. Dreuw,  B. D. Dunietz,  T. R. Furlani,  
 W. A. Goddard III,  S. Grimme,  S. Hammes-Schiffer,  T. Head-Gordon,  
 W. J. Hehre,  Chao-Ping Hsu,  T.-C. Jagau,  Yousung Jung,  A. Klamt,  
 Jing Kong,  D. S. Lambrecht,  Xiangyuan Li,  WanZhen Liang,  N. J. Mayhall,  
 C. W. McCurdy,  J. B. Neaton,  T. Neudecker,  C. Ochsenfeld,  
 J. A. Parkhill,  R. Peverati,  V. A. Rassolov,  Haisheng Ren,  Yihan Shao,  
 L. V. Slipchenko,  R. P. Steele,  J. E. Subotnik,  A. J. W. Thom,  
 A. Tkatchenko,  D. G. Truhlar,  T. Van Voorhis,  Fan Wang,  
 T. A. Wesolowski,  K. B. Whaley,  H. L. Woodcock III,  P. M. Zimmerman,  
 S. Faraji,  P. M. W. Gill,  M. Head-Gordon,  J. M. Herbert,  A. I. Krylov

 Contributors to earlier versions of Q-Chem not listed above: 
 R. D. Adamson,  B. Austin,  R. Baer,  J. Baker,  G. J. O. Beran,  
 K. Brandhorst,  S. T. Brown,  E. F. C. Byrd,  Arup K. Chakraborty,  
 G. K. L. Chan,  Chun-Min Chang,  Yunqing Chen,  C.-L. Cheng,  
 Siu Hung Chien,  D. M. Chipman,  D. L. Crittenden,  H. Dachsel,  
 R. J. Doerksen,  A. D. Dutoi,  R. G. Edgar,  J. Fosso-Tande,  
 L. Fusti-Molnar,  D. Ghosh,  A. Ghysels,  A. Golubeva-Zadorozhnaya,  
 J. Gonthier,  M. S. Gordon,  S. R. Gwaltney,  G. Hawkins,  J. E. Herr,  
 A. Heyden,  S. Hirata,  E. G. Hohenstein,  G. Kedziora,  F. J. Keil,  
 C. Kelley,  Jihan Kim,  R. A. King,  R. Z. Khaliullin,  P. P. Korambath,  
 W. Kurlancheek,  A. Laurent,  A. M. Lee,  M. S. Lee,  S. V. Levchenko,  
 Ching Yeh Lin,  D. Liotard,  E. Livshits,  R. C. Lochan,  I. Lotan,  
 L. A. Martinez-Martinez,  P. E. Maslen,  N. Nair,  D. P. O'Neill,  
 D. Neuhauser,  E. Neuscamman,  C. M. Oana,  R. Olivares-Amaya,  R. Olson,  
 T. M. Perrine,  B. Peters,  P. A. Pieniazek,  A. Prociuk,  Y. M. Rhee,  
 J. Ritchie,  M. A. Rohrdanz,  E. Rosta,  N. J. Russ,  H. F. Schaefer III,  
 M. W. Schmidt,  N. E. Schultz,  S. Sharma,  N. Shenvi,  C. D. Sherrill,  
 A. C. Simmonett,  A. Sodt,  T. Stein,  D. Stuck,  K. S. Thanthiriwatte,  
 V. Vanovschi,  L. Vogt,  Tao Wang,  A. Warshel,  M. A. Watson,  
 C. F. Williams,  Q. Wu,  X. Xu,  Jun Yang,  W. Zhang,  Yan Zhao

   Please cite Q-Chem as follows:
  "Software for the frontiers of quantum chemistry:
   An overview of developments in the Q-Chem 5 package"
   J. Chem. Phys. 155, 084801 (2021)
   https://doi.org/10.1063/5.0055522 (open access)

 Q-Chem 6.1.0 for Intel X86 EM64T Linux

 Parts of Q-Chem use Armadillo 9.900.5 (Nocturnal Misbehaviour).
 http://arma.sourceforge.net/

 Q-Chem begins on Tue Jan 16 07:01:02 2024  

 Host: n0088.mhg0
0

     Scratch files written to /local/scratch/users/juanes/O-CCSD_FeCO4-C3v-S0.in20240116070048//
 Processing $rem in /global/home/groups-sw/mhg/qchem_public/qchem_6101/config/preferences:
 Processing $rem in /global/home/users/juanes/.qchemrc:

 Checking the input file for inconsistencies... 	...done.

--------------------------------------------------------------
User input:
--------------------------------------------------------------
$comment
  Plain old SCF on the ground state.
$end

$molecule
  0   1
  Fe
  C   1   rFeC_Ax
  C   1   rFeC_Eq  2  a_CAx_CEq
  C   1   rFeC_Eq  2  a_CAx_CEq  3 d_C
  C   1   rFeC_Eq  2  a_CAx_CEq  3 d_nC
  O   1   rFeO_Ax  3  a_CAx_CEq  2 d_0
  O   1   rFeO_Eq  2  a_CAx_OEq  3 d_0
  O   1   rFeO_Eq  2  a_CAx_OEq  4 d_0
  O   1   rFeO_Eq  2  a_CAx_OEq  5 d_0

  rFeC_Ax   =    1.78700
  rFeC_Eq   =    1.84962
  rFeO_Ax   =    2.93616
  rFeO_Eq   =    2.99880
  a_CAx_CEq =   92.43000
  a_CAx_OEq =   91.88960
  d_0       =    0.00000
  d_nC      = -120.00000
  d_C       =  120.00000
$end

$rem
  METHOD               HF
  UNRESTRICTED         FALSE
  BASIS                GEN
  PURECART             11
  SYMMETRY             FALSE
  SYM_IGNORE           TRUE
  GEN_SCFMAN           TRUE
  SCF_ALGORITHM        DIIS_GDM
  SCF_CONVERGENCE      8
  MAX_SCF_CYCLES       200
  INTERNAL_STABILITY   TRUE
  INTERNAL_STABILITY_ITER 10
  INTERNAL_STABILITY_DAVIDSON_ITER 250
  MEM_TOTAL            32000
  MEM_STATIC           1000
  THRESH               14
$end

$basis
C    0
cc-pVDZ
****
O    0
cc-pVDZ
****
Fe    0
cc-pVDZ
****
$end

--------------------------------------------------------------
 ----------------------------------------------------------------
             Standard Nuclear Orientation (Angstroms)
    I     Atom           X                Y                Z
 ----------------------------------------------------------------
    1      Fe      0.0000000000     0.0000000000     0.0000000000
    2      C       0.0000000000     0.0000000000     1.7870000000
    3      C       1.8479567608     0.0000000000    -0.0784216453
    4      C      -0.9239783804    -1.6003775000    -0.0784216453
    5      C      -0.9239783804     1.6003775000    -0.0784216453
    6      O       0.0000000000     0.0000000000     2.9361600000
    7      O       2.9971693054     0.0000000000    -0.0988817217
    8      O      -1.4985846527    -2.5956247579    -0.0988817217
    9      O      -1.4985846527     2.5956247579    -0.0988817217
 ----------------------------------------------------------------
 Nuclear Repulsion Energy =         578.15823836 hartrees
 There are       41 alpha and       41 beta electrons
 Requested basis set is non-standard
 There are 63 shells and 155 basis functions

 Total QAlloc Memory Limit  32000 MB
 Mega-Array Size       978 MB
 MEM_STATIC part      1000 MB


                       Distance Matrix (Angstroms)
             Fe(  1)   C (  2)   C (  3)   C (  4)   C (  5)   O (  6)
   C (  2)  1.787000
   C (  3)  1.849620  2.625784
   C (  4)  1.849620  2.625784  3.200755
   C (  5)  1.849620  2.625784  3.200755  3.200755
   O (  6)  2.936160  1.149160  3.535908  3.535908  3.535908
   O (  7)  2.998800  3.541126  1.149395  4.235213  4.235213  4.265501
   O (  8)  2.998800  3.541126  4.235213  1.149395  4.235213  4.265501
   O (  9)  2.998800  3.541126  4.235213  4.235213  1.149395  4.265501
             O (  7)   O (  8)
   O (  8)  5.191250
   O (  9)  5.191250  5.191250
 
 A cutoff of  1.0D-14 yielded   1854 shell pairs
 There are     11510 function pairs (     13720 Cartesian)
 Smallest overlap matrix eigenvalue = 2.33E-04

 Scale SEOQF with 1.000000e-01/1.000000e-01/1.000000e-01

 Standard Electronic Orientation quadrupole field applied
 Nucleus-field energy     =     0.0000000054 hartrees
 ================ Generating on-the-fly SAD Guess ================
 Attempting to make child job directory: /local/scratch/users/juanes/O-CCSD_FeCO4-C3v-S0.in20240116070048//Frg1/
 Attempting to make child job directory: /local/scratch/users/juanes/O-CCSD_FeCO4-C3v-S0.in20240116070048//Frg2/
 Attempting to make child job directory: /local/scratch/users/juanes/O-CCSD_FeCO4-C3v-S0.in20240116070048//Frg3/
 Creating input file /local/scratch/users/juanes/O-CCSD_FeCO4-C3v-S0.in20240116070048/Frg1.input
 using default PutDataFrgm: nothing
 calling putenv with: QCSCRATCH=/local/scratch/users/juanes/O-CCSD_FeCO4-C3v-S0.in20240116070048/ 
 Spawning Job For Fragment 0
 Done Job For Fragment 0
 calling putenv with: QCSCRATCH=/local/scratch/users/juanes 
 calling putenv with: QCTHREADS=32 
 Creating input file /local/scratch/users/juanes/O-CCSD_FeCO4-C3v-S0.in20240116070048/Frg2.input
 using default PutDataFrgm: nothing
 calling putenv with: QCSCRATCH=/local/scratch/users/juanes/O-CCSD_FeCO4-C3v-S0.in20240116070048/ 
 Spawning Job For Fragment 1
 Done Job For Fragment 1
 calling putenv with: QCSCRATCH=/local/scratch/users/juanes 
 calling putenv with: QCTHREADS=32 
 Creating input file /local/scratch/users/juanes/O-CCSD_FeCO4-C3v-S0.in20240116070048/Frg3.input
 using default PutDataFrgm: nothing
 calling putenv with: QCSCRATCH=/local/scratch/users/juanes/O-CCSD_FeCO4-C3v-S0.in20240116070048/ 
 Spawning Job For Fragment 2
 Done Job For Fragment 2
 calling putenv with: QCSCRATCH=/local/scratch/users/juanes 
 calling putenv with: QCTHREADS=32 
 Time for running child jobs:  CPU 4.93 s  wall 540.90 s
 ============= Method Specific SAD Guess Constructed =============
 Guess from on-the-fly superposition of atomic densities
 Warning: Energy on first SCF cycle will be non-variational

 -----------------------------------------------------------------------
  General SCF calculation program by
  Eric Jon Sundstrom, Paul Horn, Yuezhi Mao, Dmitri Zuev, Alec White,
  David Stuck, Shaama M.S., Shane Yost, Joonho Lee, David Small,
  Daniel Levine, Susi Lehtola, Hugh Burton, Evgeny Epifanovsky,
  Bang C. Huynh
 -----------------------------------------------------------------------
 Hartree-Fock
Running Object-Oriented RKS (RHF)
 using 32 threads for integral computing
 -------------------------------------------------------
 OpenMP Integral computing Module                
 Release: version 1.0, May 2013, Q-Chem Inc. Pittsburgh 
 -------------------------------------------------------
Printing hybrid method specification in gen_scfman_hybrid_algorithm
algorithm ALGO_ID will be run until the gradient/residual is below 1E-ALGO_CONV
or ALGO_ITER iterations have been performed
----------------------------------------------
  ALGO_ID        ALGO_CONV         ALGO_ITER
----------------------------------------------
  DIIS                    2           50
  GDM                     8           200
----------------------------------------------
We will preform up to 10 macro iterations over saddle points until a stable solution is found
Energy prior to optimization (guess energy) = -1712.704093966899
Begin Timing: Total SCF Calculation
Begin Timing: SCF Single Stationary Point Calculation
Begin Timing: Algorithm 1
begin iterations for algorithm: DIIS         
the SCF tolerance is set to 1.00e-02
    1   -1712.7040939669      1.57e-02     00000 
    2   -1711.1442864792      3.62e-02     00000 
    3   -1713.1807305182      3.23e-03     Intermediate Algorithm Converged
successfully completed hybrid algorithm stage: 1
Timing for Algorithm DIIS          : 28.00s (wall), 446.64s (cpu)
Begin Timing: Algorithm 2
begin iterations for algorithm: GDM          
the SCF tolerance is set to 1.00e-08
    1   -1713.1807305182      7.74e-02     00000  Normal BFGS step
    2   -1713.1839895966      1.10e-01     00000  Normal BFGS step
    3   -1713.2177542134      5.97e-02     00000  Normal BFGS step
    4   -1713.2251595494      3.00e-02     00000  Normal BFGS step
    5   -1713.2328918336      7.37e-03     00000  Normal BFGS step
    6   -1713.2334419670      4.81e-03     00000  Normal BFGS step
    7   -1713.2338394646      1.78e-03     00000  Normal BFGS step
    8   -1713.2338737200      5.61e-04     00000  Normal BFGS step
    9   -1713.2338811063      2.75e-04     00000  Normal BFGS step
   10   -1713.2338815240      1.41e-04     00000  Normal BFGS step
   11   -1713.2338816641      2.47e-05     00000  Normal BFGS step
   12   -1713.2338816807      1.26e-05     00000  Normal BFGS step
   13   -1713.2338816845      5.49e-06     00000  Normal BFGS step
   14   -1713.2338816850      3.59e-06     00000  Normal BFGS step
   15   -1713.2338816853      1.50e-06     00000  Normal BFGS step
   16   -1713.2338816853      8.33e-07     00000  Normal BFGS step
   17   -1713.2338816854      3.12e-07     00000  Normal BFGS step
   18   -1713.2338816854      1.53e-07     00000  Normal BFGS step
   19   -1713.2338816854      1.14e-07     00000  Normal BFGS step
   20   -1713.2338816854      1.98e-07     00000  Normal BFGS step
   21   -1713.2338816854      7.94e-09     00000 Convergence criterion met
Timing for Algorithm GDM           : 343.00s (wall), 4930.87s (cpu)
Timing for Single Stationary Point: 371.00s (wall), 5377.51s (cpu)
Begin Timing: Stability
===================================================
Beginning Test for Internal Stability
===================================================
generating davidson guess vectors based on koopmans excitations
    1      1.64e+00     00000 Davidson Iteration
    2      2.15e+00     00000 Davidson Iteration
    3      6.79e-01     00000 Davidson Iteration
    4      6.51e-01     00000 Davidson Iteration
    5      1.66e-01     00000 Davidson Iteration
    6      1.22e-01     00000 Davidson Iteration
    7      6.40e-02     00000 Davidson Iteration
    8      1.70e-01     00000 Davidson Iteration
    9      2.74e-01     00000 Davidson Iteration
   10      1.99e-01     00000 Davidson Iteration
   11      1.08e-01     00000 Davidson Iteration
   12      4.51e-02     00000 Davidson Iteration
   13      8.00e-02     00000 Davidson Iteration
   14      6.81e-02     00000 Davidson Iteration
   15      2.82e-02     00000 Davidson Iteration
   16      1.16e-02     00000 Davidson Iteration
   17      1.00e-02     00000 Davidson Iteration
   18      4.90e-03     00000 Davidson Iteration
   19      1.59e-03     00000 Davidson Iteration
   20      1.40e-03     00000 Davidson Iteration
   21      1.20e-03     00000 Davidson Iteration
   22      1.67e-03     00000 Davidson Iteration
   23      8.13e-04     00000 Davidson Iteration
   24      6.58e-04     00000 Davidson Iteration
   25      1.95e-04     00000 Davidson Iteration
   26      1.10e-04     00000 Davidson Iteration
   27      4.23e-05     00000 Davidson Iteration
   28      7.65e-05     00000 Davidson Converged
converged_eigenvalues
   0.1062
   0.1062
Threshold for negative eigenvalues: -1.0e-05
solution was a local minimum (stable)
===================================================
End Test for Internal Stability
===================================================
Timing for Internal Stability: 963.00s (wall), 26660.31s (cpu)
Our SCF solution is stable!
Timing for Total SCF: 1334.00s (wall), 32038.04s (cpu)
 Total energy in the final basis set =    -1713.2338816854
    ==================================================
              The end of Object-Oriented SCFman       
    ==================================================
 
 --------------------------------------------------------------
 
                    Orbital Energies (a.u.)
 --------------------------------------------------------------
 
 Alpha MOs
 -- Occupied --
******** -31.9223 -27.4085 -27.3987 -27.3987 -20.6714 -20.6647 -20.6647
-20.6647 -11.3934 -11.3909 -11.3909 -11.3909  -4.1115  -2.7004  -2.6892
 -2.6892  -1.5156  -1.5083  -1.5082  -1.5082  -0.8358  -0.8055  -0.8055
 -0.8040  -0.7027  -0.6567  -0.6567  -0.6430  -0.6430  -0.6371  -0.6340
 -0.6309  -0.6309  -0.6186  -0.6186  -0.5997  -0.4879  -0.4879  -0.3285
 -0.3285
 -- Virtual --
  0.0271   0.0883   0.1118   0.1118   0.1160   0.1160   0.1339   0.1430
  0.1586   0.1586   0.1954   0.1954   0.2583   0.3039   0.3653   0.3653
  0.3977   0.3977   0.4010   0.5202   0.5377   0.5398   0.5398   0.6548
  0.6548   0.6718   0.7208   0.7208   0.7724   0.7813   0.7959   0.7959
  0.8320   0.8674   0.8674   0.9191   0.9279   0.9279   0.9950   1.0145
  1.0211   1.0211   1.1782   1.2291   1.2291   1.2476   1.2476   1.2815
  1.2815   1.2884   1.3012   1.3078   1.3078   1.3200   1.3350   1.3549
  1.3549   1.4091   1.4091   1.4392   1.4392   1.4538   1.4839   1.4839
  1.5492   1.5700   1.5700   1.5855   1.6772   1.6772   1.7007   1.7942
  1.7989   1.7989   2.1049   2.1105   2.1105   2.1195   2.1884   2.1884
  2.3147   2.4057   2.4057   2.8528   2.9360   2.9360   2.9365   2.9395
  2.9395   2.9411   2.9411   2.9549   3.0634   3.0730   3.0730   3.2383
  3.3005   3.3005   3.4883   3.4883   3.4924   3.5699   3.5699   3.7419
  3.7419   3.8397   3.8526   3.8526   3.8594   3.9405   4.1624   4.1624
  4.2864   4.4879
 --------------------------------------------------------------
 
          Ground-State Mulliken Net Atomic Charges

     Atom                 Charge (a.u.)
  ----------------------------------------
      1 Fe                   -0.085902
      2 C                     0.168970
      3 C                     0.163441
      4 C                     0.163441
      5 C                     0.163441
      6 O                    -0.144566
      7 O                    -0.142942
      8 O                    -0.142942
      9 O                    -0.142942
  ----------------------------------------
  Sum of atomic charges =     0.000000

 -----------------------------------------------------------------
                    Cartesian Multipole Moments
 -----------------------------------------------------------------
    Charge (ESU x 10^10)
                -0.0000
    Dipole Moment (Debye)
         X       0.0000      Y       0.0000      Z      -1.4310
       Tot       1.4310
    Quadrupole Moments (Debye-Ang)
        XX     -63.8450     XY      -0.0000     YY     -63.8450
        XZ      -0.0000     YZ      -0.0000     ZZ     -57.2225
    Octopole Moments (Debye-Ang^2)
       XXX     -13.7742    XXY       0.0000    XYY      13.7742
       YYY       0.0000    XXZ     -20.2109    XYZ       0.0000
       YYZ     -20.2109    XZZ       0.0000    YZZ       0.0000
       ZZZ     -84.9625
    Hexadecapole Moments (Debye-Ang^3)
      XXXX    -714.0241   XXXY      -0.0000   XXYY    -238.0080
      XYYY       0.0000   YYYY    -714.0241   XXXZ       2.1302
      XXYZ      -0.0000   XYYZ      -2.1302   YYYZ       0.0000
      XXZZ    -170.7592   XYZZ      -0.0000   YYZZ    -170.7592
      XZZZ      -0.0000   YZZZ      -0.0000   ZZZZ    -478.1274
 -----------------------------------------------------------------
 Total job time:  1905.81s(wall), 32433.71s(cpu) 
 Tue Jan 16 07:32:48 2024

        *************************************************************
        *                                                           *
        *  Thank you very much for using Q-Chem.  Have a nice day.  *
        *                                                           *
        *************************************************************


 
User input: 2 of 2 
 
                  Welcome to Q-Chem
     A Quantum Leap Into The Future Of Chemistry


 Q-Chem 6.1 (devel), Q-Chem, Inc., Pleasanton, CA (2022)

 E. Epifanovsky,  A. T. B. Gilbert,  Xintian Feng,  Joonho Lee,  Yuezhi Mao,  
 N. Mardirossian,  P. Pokhilko,  A. White,  M. Wormit,  M. P. Coons,  
 A. L. Dempwolff,  Zhengting Gan,  D. Hait,  P. R. Horn,  L. D. Jacobson,  
 I. Kaliman,  J. Kussmann,  A. W. Lange,  Ka Un Lao,  D. S. Levine,  Jie Liu,  
 S. C. McKenzie,  A. F. Morrison,  K. D. Nanda,  F. Plasser,  D. R. Rehn,  
 M. L. Vidal,  Zhi-Qiang You,  Ying Zhu,  B. Alam,  B. Albrecht,  
 A. Aldossary,  E. Alguire,  J. H. Andersen,  V. Athavale,  D. Barton,  
 K. Begam,  A. Behn,  N. Bellonzi,  Y. A. Bernard,  E. J. Berquist,  
 H. Burton,  A. Carreras,  K. Carter-Fenk,  Mathew Chow,  Romit Chakraborty,  
 Chandrima Chakravarty,  Junhan Chen,  A. D. Chien,  K. D. Closser,  
 V. Cofer-Shabica,  L. Cunha,  S. Dasgupta,  Jia Deng,  M. de Wergifosse,  
 M. Diedenhofen,  Hainam Do,  S. Ehlert,  Po-Tung Fang,  S. Fatehi,  
 Qingguo Feng,  T. Friedhoff,  Thomas Froitzheim,  B. Ganoe,  J. Gayvert,  
 Qinghui Ge,  G. Gidofalvi,  M. Gimferrer,  M. Goldey,  Montgomery Gray,  
 J. Gomes,  C. Gonzalez-Espinoza,  S. Gulania,  A. Gunina,  J. A. Gyamfi,  
 M. W. D. Hanson-Heine,  P. H. P. Harbach,  A. W. Hauser,  M. F. Herbst,  
 M. Hernandez Vera,  M. Hodecker,  Z. C. Holden,  S. Houck,  Xunkun Huang,  
 Kerwin Hui,  B. C. Huynh,  K. Ikeda,  M. Ivanov,  Hyunjun Ji,  Zuxin Jin,  
 Hanjie Jiang,  Subrata Jana,  B. Kaduk,  S. Kaehler,  R. Kang,  
 K. Khistyaev,  Jaehoon Kim,  Yongbin Kim,  P. Klunzinger,  Z. Koczor-Benda,  
 Joong Hoon Koh,  D. Kosenkov,  Saikiran Kotaru,  L. Koulias,  T. Kowalczyk,  
 C. M. Krauter,  K. Kue,  A. Kunitsa,  T. Kus,  A. Landau,  K. V. Lawler,  
 D. Lefrancois,  S. Lehtola,  Rain Li,  Shaozhi Li,  Yi-Pei Li,  
 Jiashu Liang,  M. Liebenthal,  Hung-Hsuan Lin,  You-Sheng Lin,  Fenglai Liu,  
 Kuan-Yu Liu,  Xiao Liu,  M. Loipersberger,  A. Luenser,  C. Malbon,  
 A. Manjanath,  P. Manohar,  E. Mansoor,  S. F. Manzer,  Shan-Ping Mao,  
 A. V. Marenich,  T. Markovich,  S. Mason,  F. Matz,  S. A. Maurer,  
 P. F. McLaughlin,  M. F. S. J. Menger,  J.-M. Mewes,  S. A. Mewes,  
 P. Morgante,  Mohammad Mostafanejad,  J. W. Mullinax,  K. J. Oosterbaan,  
 G. Paran,  V. Parravicini,  Alexander C. Paul,  Suranjan K. Paul,  
 F. Pavosevic,  Zheng Pei,  S. Prager,  E. I. Proynov,  E. Ramos,  B. Rana,  
 A. E. Rask,  A. Rettig,  R. M. Richard,  F. Rob,  E. Rossomme,  T. Scheele,  
 M. Scheurer,  M. Schneider,  P. E. Schneider,  Tim K. Schramm,  N. Sergueev,  
 S. M. Sharada,  M. Sharma,  Hengyuan Shen,  W. Skomorowski,  D. W. Small,  
 C. J. Stein,  Alistair J. Sterling,  Yingli Su,  Yu-Chuan Su,  
 E. J. Sundstrom,  J. Talbot,  Zhen Tao,  J. Thirman,  Hung-Yi Tsai,  
 T. Tsuchimochi,  N. M. Tubman,  C. Utku,  S. P. Veccham,  O. Vydrov,  
 J. Wenzel,  Jonathan Wong,  J. Witte,  A. Yamada,  Chou-Hsun Yang,  Kun Yao,  
 S. Yeganeh,  S. R. Yost,  A. Zech,  F. Zeller,  Igor Ying Zhang,  
 Xing Zhang,  Yu Zhang,  D. Zuev,  A. Aspuru-Guzik,  A. T. Bell,  
 N. A. Besley,  K. B. Bravaya,  B. R. Brooks,  D. Casanova,  Jeng-Da Chai,  
 Hsing-Ta Chen,  S. Coriani,  C. J. Cramer,  A. E. DePrince, III,  
 R. A. DiStasio Jr.,  A. Dreuw,  B. D. Dunietz,  T. R. Furlani,  
 W. A. Goddard III,  S. Grimme,  S. Hammes-Schiffer,  T. Head-Gordon,  
 W. J. Hehre,  Chao-Ping Hsu,  T.-C. Jagau,  Yousung Jung,  A. Klamt,  
 Jing Kong,  D. S. Lambrecht,  Xiangyuan Li,  WanZhen Liang,  N. J. Mayhall,  
 C. W. McCurdy,  J. B. Neaton,  T. Neudecker,  C. Ochsenfeld,  
 J. A. Parkhill,  R. Peverati,  V. A. Rassolov,  Haisheng Ren,  Yihan Shao,  
 L. V. Slipchenko,  R. P. Steele,  J. E. Subotnik,  A. J. W. Thom,  
 A. Tkatchenko,  D. G. Truhlar,  T. Van Voorhis,  Fan Wang,  
 T. A. Wesolowski,  K. B. Whaley,  H. L. Woodcock III,  P. M. Zimmerman,  
 S. Faraji,  P. M. W. Gill,  M. Head-Gordon,  J. M. Herbert,  A. I. Krylov

 Contributors to earlier versions of Q-Chem not listed above: 
 R. D. Adamson,  B. Austin,  R. Baer,  J. Baker,  G. J. O. Beran,  
 K. Brandhorst,  S. T. Brown,  E. F. C. Byrd,  Arup K. Chakraborty,  
 G. K. L. Chan,  Chun-Min Chang,  Yunqing Chen,  C.-L. Cheng,  
 Siu Hung Chien,  D. M. Chipman,  D. L. Crittenden,  H. Dachsel,  
 R. J. Doerksen,  A. D. Dutoi,  R. G. Edgar,  J. Fosso-Tande,  
 L. Fusti-Molnar,  D. Ghosh,  A. Ghysels,  A. Golubeva-Zadorozhnaya,  
 J. Gonthier,  M. S. Gordon,  S. R. Gwaltney,  G. Hawkins,  J. E. Herr,  
 A. Heyden,  S. Hirata,  E. G. Hohenstein,  G. Kedziora,  F. J. Keil,  
 C. Kelley,  Jihan Kim,  R. A. King,  R. Z. Khaliullin,  P. P. Korambath,  
 W. Kurlancheek,  A. Laurent,  A. M. Lee,  M. S. Lee,  S. V. Levchenko,  
 Ching Yeh Lin,  D. Liotard,  E. Livshits,  R. C. Lochan,  I. Lotan,  
 L. A. Martinez-Martinez,  P. E. Maslen,  N. Nair,  D. P. O'Neill,  
 D. Neuhauser,  E. Neuscamman,  C. M. Oana,  R. Olivares-Amaya,  R. Olson,  
 T. M. Perrine,  B. Peters,  P. A. Pieniazek,  A. Prociuk,  Y. M. Rhee,  
 J. Ritchie,  M. A. Rohrdanz,  E. Rosta,  N. J. Russ,  H. F. Schaefer III,  
 M. W. Schmidt,  N. E. Schultz,  S. Sharma,  N. Shenvi,  C. D. Sherrill,  
 A. C. Simmonett,  A. Sodt,  T. Stein,  D. Stuck,  K. S. Thanthiriwatte,  
 V. Vanovschi,  L. Vogt,  Tao Wang,  A. Warshel,  M. A. Watson,  
 C. F. Williams,  Q. Wu,  X. Xu,  Jun Yang,  W. Zhang,  Yan Zhao

   Please cite Q-Chem as follows:
  "Software for the frontiers of quantum chemistry:
   An overview of developments in the Q-Chem 5 package"
   J. Chem. Phys. 155, 084801 (2021)
   https://doi.org/10.1063/5.0055522 (open access)

 Q-Chem 6.1.0 for Intel X86 EM64T Linux

 Parts of Q-Chem use Armadillo 9.900.5 (Nocturnal Misbehaviour).
 http://arma.sourceforge.net/

 Q-Chem begins on Tue Jan 16 07:32:48 2024  

 Host: n0088.mhg0
0

     Scratch files written to /local/scratch/users/juanes/O-CCSD_FeCO4-C3v-S0.in20240116070048//
 Processing $rem in /global/home/groups-sw/mhg/qchem_public/qchem_6101/config/preferences:
 Processing $rem in /global/home/users/juanes/.qchemrc:
 Core orbitals will be frozen

 Checking the input file for inconsistencies... 	...done.

--------------------------------------------------------------
User input:
--------------------------------------------------------------

$comment
  Optimization of the CCSD structure.
$end

$molecule
  0   1
  Fe
  C   1   rFeC_Ax
  C   1   rFeC_Eq  2  a_CAx_CEq
  C   1   rFeC_Eq  2  a_CAx_CEq  3 d_C
  C   1   rFeC_Eq  2  a_CAx_CEq  3 d_nC
  O   1   rFeO_Ax  3  a_CAx_CEq  2 d_0
  O   1   rFeO_Eq  2  a_CAx_OEq  3 d_0
  O   1   rFeO_Eq  2  a_CAx_OEq  4 d_0
  O   1   rFeO_Eq  2  a_CAx_OEq  5 d_0

  rFeC_Ax   =    1.78700
  rFeC_Eq   =    1.84962
  rFeO_Ax   =    2.93616
  rFeO_Eq   =    2.99880
  a_CAx_CEq =   92.43000
  a_CAx_OEq =   91.88960
  d_0       =    0.00000
  d_nC      = -120.00000
  d_C       =  120.00000
$end

$rem
  JOBTYPE              OPT
  METHOD               CCSD
  UNRESTRICTED         FALSE
  BASIS                GEN
  PURECART             11
  SYMMETRY             FALSE
  SYM_IGNORE           TRUE
  GEN_SCFMAN           TRUE
  SCF_GUESS            READ
  SCF_ALGORITHM        GDM
  SCF_CONVERGENCE      7
  MAX_SCF_CYCLES       200
  CC_BACKEND           XM
  CC_MAX_ITER          200
  MEM_TOTAL            32000
  MEM_STATIC           1000
  THRESH               14
$end

$opt
  FIXED
  1 XYZ
  ENDFIXED
$end

$basis
C    0
cc-pVDZ
****
O    0
cc-pVDZ
****
Fe    0
cc-pVDZ
****
$end

--------------------------------------------------------------
 ----------------------------------------------------------------
             Standard Nuclear Orientation (Angstroms)
    I     Atom           X                Y                Z
 ----------------------------------------------------------------
    1      Fe      0.0000000000     0.0000000000     0.0000000000
    2      C       0.0000000000     0.0000000000     1.7870000000
    3      C       1.8479567608     0.0000000000    -0.0784216453
    4      C      -0.9239783804    -1.6003775000    -0.0784216453
    5      C      -0.9239783804     1.6003775000    -0.0784216453
    6      O       0.0000000000     0.0000000000     2.9361600000
    7      O       2.9971693054     0.0000000000    -0.0988817217
    8      O      -1.4985846527    -2.5956247579    -0.0988817217
    9      O      -1.4985846527     2.5956247579    -0.0988817217
 ----------------------------------------------------------------
 Nuclear Repulsion Energy =         578.15823836 hartrees
 There are       41 alpha and       41 beta electrons
 Requested basis set is non-standard
 There are 63 shells and 155 basis functions
 Total memory of 32000 MB is distributed as follows: 
   MEM_STATIC is set to 1000 MB
   QALLOC/CCMAN JOB total memory use is  31000 MB
 Warning: actual memory use might exceed 32000 MB

 Total QAlloc Memory Limit  32000 MB
 Mega-Array Size       978 MB
 MEM_STATIC part      1000 MB

 A cutoff of  1.0D-14 yielded   1854 shell pairs
 There are     11510 function pairs (     13720 Cartesian)
 Smallest overlap matrix eigenvalue = 2.33E-04

 Scale SEOQF with 1.000000e-01/1.000000e-01/1.000000e-01

 Standard Electronic Orientation quadrupole field applied
 Nucleus-field energy     =     0.0000000054 hartrees
 Guess MOs from SCF MO coefficient file

 -----------------------------------------------------------------------
  General SCF calculation program by
  Eric Jon Sundstrom, Paul Horn, Yuezhi Mao, Dmitri Zuev, Alec White,
  David Stuck, Shaama M.S., Shane Yost, Joonho Lee, David Small,
  Daniel Levine, Susi Lehtola, Hugh Burton, Evgeny Epifanovsky,
  Bang C. Huynh
 -----------------------------------------------------------------------
 Hartree-Fock
 using 32 threads for integral computing
 -------------------------------------------------------
 OpenMP Integral computing Module                
 Release: version 1.0, May 2013, Q-Chem Inc. Pittsburgh 
 -------------------------------------------------------
 A restricted SCF calculation will be
 performed using GDM
 SCF converges when RMS gradient is below 1.0e-07
 ---------------------------------------
  Cycle       Energy        RMS Gradient
 ---------------------------------------
    1   -1713.2338816854      4.71e-09  Convergence criterion met
 ---------------------------------------
 SCF time:   CPU 421.20s  wall 33.00s 
 SCF   energy in the final basis set =    -1713.2338816854
 Total energy in the final basis set =    -1713.2338816854


 ------------------------------------------------------------------------------

   CCMAN2: suite of methods based on coupled cluster
           and equation of motion theories.

   Components:
   * libvmm-1.3-trunk
     by Evgeny Epifanovsky, Ilya Kaliman.
   * libtensor-2.5-trunk
     by Evgeny Epifanovsky, Michael Wormit, Dmitry Zuev, Sam Manzer, 
        Ilya Kaliman.
   * libcc-2.5-trunk
     by Evgeny Epifanovsky, Arik Landau, Tomasz Kus, Kirill Khistyaev, 
        Dmitry Zuev, Prashant Manohar, Xintian Feng, Anna Krylov, 
        Matthew Goldey, Alec White, Thomas Jagau, Kaushik Nanda, 
        Anastasia Gunina, Alexander Kunitsa, Joonho Lee.

   CCMAN original authors:
   Anna I. Krylov, C. David Sherrill, Steven R. Gwaltney,
   Edward F. C. Byrd (2000)
   Sergey V. Levchenko, Lyudmila V. Slipchenko, Tao Wang,
   Ana-Maria C. Cristian (2003)
   Piotr A. Pieniazek, C. Melania Oana, Evgeny Epifanovsky (2007)
   Prashant Manohar (2009)

 ------------------------------------------------------------------------------


 Calculation will run on 32 cores using libxm for tensor contractions

 ------------------------------------------------------------------------------
Libxm Tensor Library
Copyright (c) 2014-2018 Ilya Kaliman
https://github.com/ilyak/libxm
Reference: https://dx.doi.org/10.1002/jcc.24713
 ------------------------------------------------------------------------------

 
 Alpha MOs, Restricted
 -- Occupied --                  
-261.35  -31.92  -27.41  -27.40  -27.40  -20.67  -20.66  -20.66
  1 A     2 A     3 A     4 A     5 A     6 A     7 A     8 A                  
-20.665 -11.393 -11.391 -11.391 -11.391  -4.112  -2.700  -2.689
  9 A    10 A    11 A    12 A    13 A    14 A    15 A    16 A                  
 -2.689  -1.516  -1.508  -1.508  -1.508  -0.836  -0.805  -0.805
 17 A    18 A    19 A    20 A    21 A    22 A    23 A    24 A                  
 -0.804  -0.703  -0.657  -0.657  -0.643  -0.643  -0.637  -0.634
 25 A    26 A    27 A    28 A    29 A    30 A    31 A    32 A                  
 -0.631  -0.631  -0.619  -0.619  -0.600  -0.488  -0.488  -0.328
 33 A    34 A    35 A    36 A    37 A    38 A    39 A    40 A                  
 -0.328
 41 A                                                                          
 -- Virtual --                   
  0.027   0.088   0.112   0.112   0.116   0.116   0.134   0.143
 42 A    43 A    44 A    45 A    46 A    47 A    48 A    49 A                  
  0.159   0.159   0.195   0.195   0.258   0.304   0.365   0.365
 50 A    51 A    52 A    53 A    54 A    55 A    56 A    57 A                  
  0.398   0.398   0.401   0.520   0.538   0.540   0.540   0.655
 58 A    59 A    60 A    61 A    62 A    63 A    64 A    65 A                  
  0.655   0.672   0.721   0.721   0.772   0.781   0.796   0.796
 66 A    67 A    68 A    69 A    70 A    71 A    72 A    73 A                  
  0.832   0.867   0.867   0.919   0.928   0.928   0.995   1.015
 74 A    75 A    76 A    77 A    78 A    79 A    80 A    81 A                  
  1.021   1.021   1.178   1.229   1.229   1.248   1.248   1.282
 82 A    83 A    84 A    85 A    86 A    87 A    88 A    89 A                  
  1.282   1.288   1.301   1.308   1.308   1.320   1.335   1.355
 90 A    91 A    92 A    93 A    94 A    95 A    96 A    97 A                  
  1.355   1.409   1.409   1.439   1.439   1.454   1.484   1.484
 98 A    99 A   100 A   101 A   102 A   103 A   104 A   105 A                  
  1.549   1.570   1.570   1.585   1.677   1.677   1.701   1.794
106 A   107 A   108 A   109 A   110 A   111 A   112 A   113 A                  
  1.799   1.799   2.105   2.111   2.111   2.120   2.188   2.188
114 A   115 A   116 A   117 A   118 A   119 A   120 A   121 A                  
  2.315   2.406   2.406   2.853   2.936   2.936   2.937   2.940
122 A   123 A   124 A   125 A   126 A   127 A   128 A   129 A                  
  2.940   2.941   2.941   2.955   3.063   3.073   3.073   3.238
130 A   131 A   132 A   133 A   134 A   135 A   136 A   137 A                  
  3.301   3.301   3.488   3.488   3.492   3.570   3.570   3.742
138 A   139 A   140 A   141 A   142 A   143 A   144 A   145 A                  
  3.742   3.840   3.853   3.853   3.859   3.941   4.162   4.162
146 A   147 A   148 A   149 A   150 A   151 A   152 A   153 A                  
  4.286   4.488
154 A   155 A                                                                  
 
 Beta MOs, Restricted
 -- Occupied --                  
-261.35  -31.92  -27.41  -27.40  -27.40  -20.67  -20.66  -20.66
  1 A     2 A     3 A     4 A     5 A     6 A     7 A     8 A                  
-20.665 -11.393 -11.391 -11.391 -11.391  -4.112  -2.700  -2.689
  9 A    10 A    11 A    12 A    13 A    14 A    15 A    16 A                  
 -2.689  -1.516  -1.508  -1.508  -1.508  -0.836  -0.805  -0.805
 17 A    18 A    19 A    20 A    21 A    22 A    23 A    24 A                  
 -0.804  -0.703  -0.657  -0.657  -0.643  -0.643  -0.637  -0.634
 25 A    26 A    27 A    28 A    29 A    30 A    31 A    32 A                  
 -0.631  -0.631  -0.619  -0.619  -0.600  -0.488  -0.488  -0.328
 33 A    34 A    35 A    36 A    37 A    38 A    39 A    40 A                  
 -0.328
 41 A                                                                          
 -- Virtual --                   
  0.027   0.088   0.112   0.112   0.116   0.116   0.134   0.143
 42 A    43 A    44 A    45 A    46 A    47 A    48 A    49 A                  
  0.159   0.159   0.195   0.195   0.258   0.304   0.365   0.365
 50 A    51 A    52 A    53 A    54 A    55 A    56 A    57 A                  
  0.398   0.398   0.401   0.520   0.538   0.540   0.540   0.655
 58 A    59 A    60 A    61 A    62 A    63 A    64 A    65 A                  
  0.655   0.672   0.721   0.721   0.772   0.781   0.796   0.796
 66 A    67 A    68 A    69 A    70 A    71 A    72 A    73 A                  
  0.832   0.867   0.867   0.919   0.928   0.928   0.995   1.015
 74 A    75 A    76 A    77 A    78 A    79 A    80 A    81 A                  
  1.021   1.021   1.178   1.229   1.229   1.248   1.248   1.282
 82 A    83 A    84 A    85 A    86 A    87 A    88 A    89 A                  
  1.282   1.288   1.301   1.308   1.308   1.320   1.335   1.355
 90 A    91 A    92 A    93 A    94 A    95 A    96 A    97 A                  
  1.355   1.409   1.409   1.439   1.439   1.454   1.484   1.484
 98 A    99 A   100 A   101 A   102 A   103 A   104 A   105 A                  
  1.549   1.570   1.570   1.585   1.677   1.677   1.701   1.794
106 A   107 A   108 A   109 A   110 A   111 A   112 A   113 A                  
  1.799   1.799   2.105   2.111   2.111   2.120   2.188   2.188
114 A   115 A   116 A   117 A   118 A   119 A   120 A   121 A                  
  2.315   2.406   2.406   2.853   2.936   2.936   2.937   2.940
122 A   123 A   124 A   125 A   126 A   127 A   128 A   129 A                  
  2.940   2.941   2.941   2.955   3.063   3.073   3.073   3.238
130 A   131 A   132 A   133 A   134 A   135 A   136 A   137 A                  
  3.301   3.301   3.488   3.488   3.492   3.570   3.570   3.742
138 A   139 A   140 A   141 A   142 A   143 A   144 A   145 A                  
  3.742   3.840   3.853   3.853   3.859   3.941   4.162   4.162
146 A   147 A   148 A   149 A   150 A   151 A   152 A   153 A                  
  4.286   4.488
154 A   155 A                                                                  

 Occupation and symmetry of molecular orbitals

 Point group: C1 (1 irreducible representation).

                           A     All 
 -------------------------------------
 All molecular orbitals:
  - Alpha                  155   155 
  - Beta                   155   155 
 -------------------------------------
 Alpha orbitals:
  - Frozen occupied        17    17  
  - Active occupied        24    24  
  - Active virtual         114   114 
  - Frozen virtual         0     0   
 -------------------------------------
 Beta orbitals:
  - Frozen occupied        17    17  
  - Active occupied        24    24  
  - Active virtual         114   114 
  - Frozen virtual         0     0   
 -------------------------------------

 Import integrals:   CPU 0.00 s  wall 0.00 s

 Import integrals:   CPU 415.48 s  wall 26.77 s

 MP2 amplitudes:   CPU 7.90 s  wall 1.53 s

Running a double precision version
           CCSD T amplitudes will be solved using DIIS.

           Start     Size      MaxIter   EConv     TConv     
           3         7         200       1.00e-07  1.00e-05  
 ------------------------------------------------------------------------------
           Energy (a.u.)   Ediff      Tdiff       Comment
 ------------------------------------------------------------------------------
         -1714.98396869                           
     1   -1714.64804490   3.36e-01   8.08e-01     
     2   -1714.94861566   3.01e-01   6.30e-02     
     3   -1714.72528602   2.23e-01   3.30e-02     
     4   -1714.83050931   1.05e-01   6.68e-01     Switched to DIIS steps.
     5   -1714.84371605   1.32e-02   3.90e-02     
     6   -1714.85412850   1.04e-02   2.64e-03     
     7   -1714.85187911   2.25e-03   2.55e-02     
     8   -1714.85200373   1.25e-04   7.34e-03     
     9   -1714.85272385   7.20e-04   4.36e-03     
    10   -1714.85315739   4.34e-04   2.30e-03     
    11   -1714.85310976   4.76e-05   4.98e-04     
    12   -1714.85313139   2.16e-05   2.92e-04     
    13   -1714.85313264   1.25e-06   1.67e-04     
    14   -1714.85313581   3.18e-06   8.95e-05     
    15   -1714.85312952   6.30e-06   3.81e-05     
    16   -1714.85313391   4.40e-06   2.56e-05     
    17   -1714.85313197   1.95e-06   1.20e-05     
    18   -1714.85313119   7.72e-07   6.95e-06     
    19   -1714.85313213   9.36e-07   4.01e-06     
    20   -1714.85313177   3.55e-07   2.41e-06     
    21   -1714.85313171   6.60e-08   9.24e-07     
 ------------------------------------------------------------------------------
         -1714.85313171                           CCSD T converged.

End of double precision
 SCF energy                 = -1713.23388169
 MP2 energy                 = -1714.98396869
 CCSD correlation energy    =    -1.61925002
 CCSD total energy          = -1714.85313171

 CCSD  T1^2 = 0.1834  T2^2 = 0.5884  Leading amplitudes:

 Amplitude    Orbitals with energies
 -0.1008       38 (A) A                  ->    46 (A) A                   
              -0.4879                          0.1160                     
 -0.1008       38 (A) B                  ->    46 (A) B                   
              -0.4879                          0.1160                     
  0.1008       39 (A) A                  ->    47 (A) A                   
              -0.4879                          0.1160                     
  0.1008       39 (A) B                  ->    47 (A) B                   
              -0.4879                          0.1160                     

 Amplitude    Orbitals with energies
 -0.0610       40 (A) A      40 (A) B    ->    50 (A) A      50 (A) B     
              -0.3285       -0.3285            0.1586        0.1586       
  0.0610       40 (A) A      40 (A) B    ->    50 (A) B      50 (A) A     
              -0.3285       -0.3285            0.1586        0.1586       
  0.0610       40 (A) B      40 (A) A    ->    50 (A) A      50 (A) B     
              -0.3285       -0.3285            0.1586        0.1586       
 -0.0610       40 (A) B      40 (A) A    ->    50 (A) B      50 (A) A     
              -0.3285       -0.3285            0.1586        0.1586       
 -0.0610       41 (A) A      41 (A) B    ->    51 (A) A      51 (A) B     
              -0.3285       -0.3285            0.1586        0.1586       
  0.0610       41 (A) A      41 (A) B    ->    51 (A) B      51 (A) A     
              -0.3285       -0.3285            0.1586        0.1586       
  0.0610       41 (A) B      41 (A) A    ->    51 (A) A      51 (A) B     
              -0.3285       -0.3285            0.1586        0.1586       
 -0.0610       41 (A) B      41 (A) A    ->    51 (A) B      51 (A) A     
              -0.3285       -0.3285            0.1586        0.1586       

 Computing CCSD intermediates for later calculations in double precision
 Finished.

Running a double precision version
           CCSD Lambda amplitudes will be solved using DIIS.
           Start     Size      MaxIter   EConv     LConv     
           3         7         200       1.00e-07  1.00e-05  
 ------------------------------------------------------------------------------
            Enorm      Ldiff       Comment
 ------------------------------------------------------------------------------
     1     1.80e-01   7.17e-02     
     2     1.22e-01   4.36e-02     
     3     1.25e-01   2.62e-02     
     4     1.98e-02   2.43e-02     Switched to DIIS steps.
     5     1.19e-02   2.99e-03     
     6     5.54e-03   5.00e-03     
     7     3.43e-03   1.89e-03     
     8     1.40e-03   1.61e-03     
     9     7.05e-04   4.57e-04     
    10     3.53e-04   1.74e-04     
    11     1.37e-04   8.80e-05     
    12     7.54e-05   2.19e-06     
    13     4.25e-05   5.09e-06     
    14     2.62e-05   2.17e-06     
    15     1.19e-05   1.55e-06     
    16     5.76e-06   1.47e-07     
    17     2.76e-06   3.03e-07     
    18     1.63e-06   1.81e-07     
    19     9.23e-07   5.80e-08     
    20     4.76e-07   1.29e-07     
    21     2.78e-07   1.25e-07     
    22     1.72e-07   3.88e-08     
    23     1.03e-07   4.31e-08     
    24     5.07e-08   2.08e-08     
 ------------------------------------------------------------------------------
                                   CCSD Lambda converged.

 Computing density matrices in double precision...
           Orbital response amplitudes will be solved using DIIS.
           Start     Size      MaxIter   EConv     LConv     
           3         7         200       1.00e-06  1.00e-06  
 ------------------------------------------------------------------------------
            Enorm      Ldiff       Comment
 ------------------------------------------------------------------------------
     1     3.13e-01   9.72e-02     
     2     8.89e-01   4.68e-01     
     3     4.03e+00   2.65e+00     
     4     1.56e-01   3.19e+00     Switched to DIIS steps.
     5     2.00e-02   5.08e-02     
     6     7.83e-03   3.11e-03     
     7     3.41e-03   1.90e-03     
     8     2.00e-03   8.12e-04     
     9     1.17e-03   3.35e-04     
    10     1.84e-04   2.47e-04     
    11     7.31e-05   4.06e-05     
    12     4.36e-05   2.24e-05     
    13     3.10e-05   1.12e-05     
    14     1.28e-05   1.01e-06     
    15     6.67e-06   3.73e-06     
    16     3.15e-06   1.58e-06     
    17     2.57e-06   4.85e-07     
    18     1.94e-06   1.50e-08     
    19     1.45e-06   2.93e-07     
    20     1.11e-06   1.34e-07     
    21     6.69e-07   1.85e-07     
 ------------------------------------------------------------------------------
                                   Orbital response converged.

 Computing density matrices... Done.
 CCSD calculation:   CPU 15774.40 s  wall 1041.70 s

 Transferring MO TPDM to AO TPDM
 Transferring g2_o1o1o1o1
 Transferring g2_o1o1o1v1
 Transferring g2_o1o1v1v1
 Transferring g2_o1v1o1v1
 Transferring g2_o1v1v1v1
 Transferring g2_v1v1v1v1
 Adding separable TPDM
 Computing TPDM gradient
 --------------------------------------------------------
 2e gradient
  Atom          X               Y               Z
 --------------------------------------------------------
    1         -0.000000        0.000037       21.347862  
    2          0.000000       -0.000127        3.035209  
    3          3.176579        0.000107        1.254752  
    4         -1.588359       -2.751012        1.254784  
    5         -1.588219        2.750983        1.254719  
    6         -0.000000        0.000019      -33.956803  
    7        -32.249760       -0.000016        1.936492  
    8         16.124892       27.929116        1.936486  
    9         16.124868      -27.929107        1.936499  
 --------------------------------------------------------
 --------------------------------------------------------
 Final gradient
  Atom          X               Y               Z
 --------------------------------------------------------
    1         -0.000000        0.000037       21.347862  
    2          0.000000       -0.000127        3.035209  
    3          3.176579        0.000107        1.254752  
    4         -1.588359       -2.751012        1.254784  
    5         -1.588219        2.750983        1.254719  
    6         -0.000000        0.000019      -33.956803  
    7        -32.249760       -0.000016        1.936492  
    8         16.124892       27.929116        1.936486  
    9         16.124868      -27.929107        1.936499  
 --------------------------------------------------------
 Analytic gradient from two-electron contribution:   CPU 3701.28 s  wall 171.19 s

 Total ccman2 time:   CPU 20081.68 s  wall 1247.21 s

 
 --------------------------------------------------------------
 
                    Orbital Energies (a.u.)
 --------------------------------------------------------------
 
 Alpha MOs
 -- Occupied --
******** -31.9223 -27.4085 -27.3987 -27.3987 -20.6714 -20.6647 -20.6647
-20.6647 -11.3934 -11.3909 -11.3909 -11.3909  -4.1115  -2.7004  -2.6892
 -2.6892  -1.5156  -1.5083  -1.5082  -1.5082  -0.8358  -0.8055  -0.8055
 -0.8040  -0.7027  -0.6567  -0.6567  -0.6430  -0.6430  -0.6371  -0.6340
 -0.6309  -0.6309  -0.6186  -0.6186  -0.5997  -0.4879  -0.4879  -0.3285
 -0.3285
 -- Virtual --
  0.0271   0.0883   0.1118   0.1118   0.1160   0.1160   0.1339   0.1430
  0.1586   0.1586   0.1954   0.1954   0.2583   0.3039   0.3653   0.3653
  0.3977   0.3977   0.4010   0.5202   0.5377   0.5398   0.5398   0.6548
  0.6548   0.6718   0.7208   0.7208   0.7724   0.7813   0.7959   0.7959
  0.8320   0.8674   0.8674   0.9191   0.9279   0.9279   0.9950   1.0145
  1.0211   1.0211   1.1782   1.2291   1.2291   1.2476   1.2476   1.2815
  1.2815   1.2884   1.3012   1.3078   1.3078   1.3200   1.3350   1.3549
  1.3549   1.4091   1.4091   1.4392   1.4392   1.4538   1.4839   1.4839
  1.5492   1.5700   1.5700   1.5855   1.6772   1.6772   1.7007   1.7942
  1.7989   1.7989   2.1049   2.1105   2.1105   2.1195   2.1884   2.1884
  2.3147   2.4057   2.4057   2.8528   2.9360   2.9360   2.9365   2.9395
  2.9395   2.9411   2.9411   2.9549   3.0634   3.0730   3.0730   3.2383
  3.3005   3.3005   3.4883   3.4883   3.4924   3.5699   3.5699   3.7419
  3.7419   3.8397   3.8526   3.8526   3.8594   3.9405   4.1624   4.1624
  4.2864   4.4879
 --------------------------------------------------------------
 
          Ground-State Mulliken Net Atomic Charges

     Atom                 Charge (a.u.)
  ----------------------------------------
      1 Fe                   -0.252922
      2 C                     0.122602
      3 C                     0.084860
      4 C                     0.084855
      5 C                     0.084864
      6 O                    -0.041727
      7 O                    -0.027511
      8 O                    -0.027512
      9 O                    -0.027509
  ----------------------------------------
  Sum of atomic charges =     0.000000

 -----------------------------------------------------------------
                    Cartesian Multipole Moments
 -----------------------------------------------------------------
    Charge (ESU x 10^10)
                -0.0000
    Dipole Moment (Debye)
         X       0.0000      Y       0.0001      Z      -1.0283
       Tot       1.0283
    Quadrupole Moments (Debye-Ang)
        XX     -61.4781     XY      -0.0000     YY     -61.4781
        XZ      -0.0000     YZ       0.0001     ZZ     -56.6292
    Octopole Moments (Debye-Ang^2)
       XXX      -8.0361    XXY       0.0001    XYY       8.0361
       YYY       0.0004    XXZ     -20.3319    XYZ       0.0001
       YYZ     -20.3319    XZZ       0.0000    YZZ      -0.0000
       ZZZ     -78.5869
    Hexadecapole Moments (Debye-Ang^3)
      XXXX    -685.4232   XXXY      -0.0002   XXYY    -228.4744
      XYYY      -0.0004   YYYY    -685.4232   XXXZ       1.4604
      XXYZ       0.0001   XYYZ      -1.4604   YYYZ       0.0002
      XXZZ    -170.8204   XYZZ       0.0001   YYZZ    -170.8204
      XZZZ      -0.0000   YZZZ       0.0002   ZZZZ    -461.0794
 -----------------------------------------------------------------
 DrvMan completing analytic gradient of the correlated energy
 Correlated dipole moment
            1
    1   0.0000000
    2   0.0000216
    3  -0.4045812
 Energy read as -1714.853131707
 Full Analytical Gradient: (in a.u., or Hartree/Bohr)
             1             2             3             4             5
    1    0.00000000   -0.00000000   -0.00012656    0.00006538    0.00006118
    2   -0.00000417    0.00000315   -0.00000192    0.00011132   -0.00010789
    3    0.00006031    0.00088083    0.00000393    0.00000236    0.00000549
             6             7             8             9
    1    0.00000000    0.00024646   -0.00012397   -0.00012248
    2   -0.00000101    0.00000103   -0.00021369    0.00021318
    3   -0.00093292   -0.00000667   -0.00000615   -0.00000718
 Gradient time:  CPU 20.98 s  wall 12.60 s
 Geometry Optimization Parameters
   NAtoms,    NIC,     NZ,  NCons,   NDum,   NFix, NCnnct, MaxDiis
        9      48       9       0       0       1       0       0
**WARNING** Cannot use Internal Coordinates with Fixed Atoms
  Cartesian Optimization Enforced


** GEOMETRY OPTIMIZATION IN CARTESIAN COORDINATES **
   Searching for a Minimum

   Optimization Cycle:   1

                       Coordinates (Angstroms)
     ATOM                X               Y               Z
      1  Fe        0.0000000000    0.0000000000    0.0000000000
      2  C         0.0000000000    0.0000000000    1.7870000000
      3  C         1.8479567608    0.0000000000   -0.0784216453
      4  C        -0.9239783804   -1.6003775000   -0.0784216453
      5  C        -0.9239783804    1.6003775000   -0.0784216453
      6  O         0.0000000000    0.0000000000    2.9361600000
      7  O         2.9971693054    0.0000000000   -0.0988817217
      8  O        -1.4985846527   -2.5956247579   -0.0988817217
      9  O        -1.4985846527    2.5956247579   -0.0988817217
   Point Group: c1    Number of degrees of freedom:    21


   Energy is  -1714.853131707

            Atoms with "Fixed" Coordinates
                Atom    Coordinates
                     1        X  Y  Z

 22 Hessian modes will be used to form the next step
  Hessian Eigenvalues:
     1.000000    1.000000    1.000000    1.000000    1.000000    1.000000
     1.000000    1.000000    1.000000    1.000000    1.000000    1.000000
     1.000000    1.000000    1.000000    1.000000    1.000000    1.000000
     1.000000    1.000000    1.000000    1.000000

 Minimum search - taking simple RFO step
 Searching for Lamda that Minimizes Along All modes
 Value Taken    Lamda =  -0.00000188
 Step Taken.  Stepsize is  0.001370

                             Maximum     Tolerance    Cnvgd?
         Gradient           0.000933      0.000300      NO
         Displacement       0.000926      0.001200     YES
         Energy change     *********      0.000001      NO

 ----------------------------------------------------------------
             Standard Nuclear Orientation (Angstroms)
    I     Atom           X                Y                Z
 ----------------------------------------------------------------
    1      Fe      0.0000000000     0.0000002453    -0.0000035462
    2      C       0.0000000000    -0.0000014212     1.7865303398
    3      C       1.8480237343     0.0000012598    -0.0784272690
    4      C      -0.9240129764    -1.6004361622    -0.0784264406
    5      C      -0.9240107578     1.6004348388    -0.0784280976
    6      O       0.0000000000     0.0000007802     2.9366501335
    7      O       2.9970388869    -0.0000003012    -0.0988817403
    8      O      -1.4985190501    -2.5955114321    -0.0988820113
    9      O      -1.4985198369     2.5955121925    -0.0988814692
 ----------------------------------------------------------------
 Nuclear Repulsion Energy =         578.15796432 hartrees
 There are       41 alpha and       41 beta electrons
 Applying Cartesian multipole field
    Component          Value
    ---------          -----
     (2,0,0)        1.00000E-11
     (0,2,0)        2.00000E-11
     (0,0,2)       -3.00000E-11
 Nucleus-field energy     =     0.0000000054 hartrees
 Requested basis set is non-standard
 There are 63 shells and 155 basis functions
 A cutoff of  1.0D-14 yielded   1854 shell pairs
 There are     11510 function pairs (     13720 Cartesian)
 Smallest overlap matrix eigenvalue = 2.33E-04
 Guess MOs from SCF MO coefficient file

 -----------------------------------------------------------------------
  General SCF calculation program by
  Eric Jon Sundstrom, Paul Horn, Yuezhi Mao, Dmitri Zuev, Alec White,
  David Stuck, Shaama M.S., Shane Yost, Joonho Lee, David Small,
  Daniel Levine, Susi Lehtola, Hugh Burton, Evgeny Epifanovsky,
  Bang C. Huynh
 -----------------------------------------------------------------------
 Hartree-Fock
 A restricted SCF calculation will be
 performed using GDM
 SCF converges when RMS gradient is below 1.0e-07
 ---------------------------------------
  Cycle       Energy        RMS Gradient
 ---------------------------------------
    1   -1713.2337643291      2.59e-04   Normal BFGS step
    2   -1713.2337653381      8.19e-05   Normal BFGS step
    3   -1713.2337654357      1.12e-04   Normal BFGS step
    4   -1713.2337654429      1.10e-04   Normal BFGS step
    5   -1713.2337654834      2.41e-05   Normal BFGS step
    6   -1713.2337654906      1.45e-05   Normal BFGS step
    7   -1713.2337654941      8.76e-06   Normal BFGS step
    8   -1713.2337654960      2.87e-06   Normal BFGS step
    9   -1713.2337654961      1.70e-06   Normal BFGS step
   10   -1713.2337654961      8.36e-07   Normal BFGS step
   11   -1713.2337654961      3.37e-07   Normal BFGS step
   12   -1713.2337654961      2.43e-07   Normal BFGS step
   13   -1713.2337654961      7.02e-08  Convergence criterion met
 ---------------------------------------
 SCF time:   CPU 3377.98s  wall 229.00s 
 SCF   energy in the final basis set =    -1713.2337654961
 Total energy in the final basis set =    -1713.2337654961


 ------------------------------------------------------------------------------

   CCMAN2: suite of methods based on coupled cluster
           and equation of motion theories.

   Components:
   * libvmm-1.3-trunk
     by Evgeny Epifanovsky, Ilya Kaliman.
   * libtensor-2.5-trunk
     by Evgeny Epifanovsky, Michael Wormit, Dmitry Zuev, Sam Manzer, 
        Ilya Kaliman.
   * libcc-2.5-trunk
     by Evgeny Epifanovsky, Arik Landau, Tomasz Kus, Kirill Khistyaev, 
        Dmitry Zuev, Prashant Manohar, Xintian Feng, Anna Krylov, 
        Matthew Goldey, Alec White, Thomas Jagau, Kaushik Nanda, 
        Anastasia Gunina, Alexander Kunitsa, Joonho Lee.

   CCMAN original authors:
   Anna I. Krylov, C. David Sherrill, Steven R. Gwaltney,
   Edward F. C. Byrd (2000)
   Sergey V. Levchenko, Lyudmila V. Slipchenko, Tao Wang,
   Ana-Maria C. Cristian (2003)
   Piotr A. Pieniazek, C. Melania Oana, Evgeny Epifanovsky (2007)
   Prashant Manohar (2009)

 ------------------------------------------------------------------------------


 Calculation will run on 32 cores using libxm for tensor contractions

 ------------------------------------------------------------------------------
Libxm Tensor Library
Copyright (c) 2014-2018 Ilya Kaliman
https://github.com/ilyak/libxm
Reference: https://dx.doi.org/10.1002/jcc.24713
 ------------------------------------------------------------------------------

 
 Alpha MOs, Restricted
 -- Occupied --                  
-261.35  -31.92  -27.41  -27.40  -27.40  -20.67  -20.66  -20.66
  1 A     2 A     3 A     4 A     5 A     6 A     7 A     8 A                  
-20.665 -11.394 -11.391 -11.391 -11.391  -4.112  -2.700  -2.689
  9 A    10 A    11 A    12 A    13 A    14 A    15 A    16 A                  
 -2.689  -1.515  -1.509  -1.508  -1.508  -0.836  -0.806  -0.806
 17 A    18 A    19 A    20 A    21 A    22 A    23 A    24 A                  
 -0.804  -0.703  -0.656  -0.656  -0.643  -0.643  -0.637  -0.634
 25 A    26 A    27 A    28 A    29 A    30 A    31 A    32 A                  
 -0.631  -0.631  -0.618  -0.618  -0.600  -0.488  -0.488  -0.329
 33 A    34 A    35 A    36 A    37 A    38 A    39 A    40 A                  
 -0.329
 41 A                                                                          
 -- Virtual --                   
  0.027   0.088   0.112   0.112   0.116   0.116   0.134   0.143
 42 A    43 A    44 A    45 A    46 A    47 A    48 A    49 A                  
  0.159   0.159   0.195   0.195   0.258   0.304   0.365   0.365
 50 A    51 A    52 A    53 A    54 A    55 A    56 A    57 A                  
  0.398   0.398   0.401   0.520   0.538   0.540   0.540   0.655
 58 A    59 A    60 A    61 A    62 A    63 A    64 A    65 A                  
  0.655   0.672   0.721   0.721   0.772   0.781   0.796   0.796
 66 A    67 A    68 A    69 A    70 A    71 A    72 A    73 A                  
  0.832   0.867   0.867   0.919   0.928   0.928   0.995   1.015
 74 A    75 A    76 A    77 A    78 A    79 A    80 A    81 A                  
  1.021   1.021   1.178   1.229   1.229   1.248   1.248   1.282
 82 A    83 A    84 A    85 A    86 A    87 A    88 A    89 A                  
  1.282   1.288   1.301   1.308   1.308   1.320   1.335   1.355
 90 A    91 A    92 A    93 A    94 A    95 A    96 A    97 A                  
  1.355   1.409   1.409   1.439   1.439   1.454   1.484   1.484
 98 A    99 A   100 A   101 A   102 A   103 A   104 A   105 A                  
  1.549   1.570   1.570   1.585   1.677   1.677   1.701   1.794
106 A   107 A   108 A   109 A   110 A   111 A   112 A   113 A                  
  1.799   1.799   2.105   2.110   2.110   2.120   2.188   2.188
114 A   115 A   116 A   117 A   118 A   119 A   120 A   121 A                  
  2.315   2.406   2.406   2.853   2.936   2.936   2.936   2.940
122 A   123 A   124 A   125 A   126 A   127 A   128 A   129 A                  
  2.940   2.941   2.941   2.955   3.063   3.073   3.073   3.238
130 A   131 A   132 A   133 A   134 A   135 A   136 A   137 A                  
  3.301   3.301   3.488   3.488   3.492   3.570   3.570   3.742
138 A   139 A   140 A   141 A   142 A   143 A   144 A   145 A                  
  3.742   3.840   3.853   3.853   3.859   3.941   4.162   4.162
146 A   147 A   148 A   149 A   150 A   151 A   152 A   153 A                  
  4.286   4.488
154 A   155 A                                                                  
 
 Beta MOs, Restricted
 -- Occupied --                  
-261.35  -31.92  -27.41  -27.40  -27.40  -20.67  -20.66  -20.66
  1 A     2 A     3 A     4 A     5 A     6 A     7 A     8 A                  
-20.665 -11.394 -11.391 -11.391 -11.391  -4.112  -2.700  -2.689
  9 A    10 A    11 A    12 A    13 A    14 A    15 A    16 A                  
 -2.689  -1.515  -1.509  -1.508  -1.508  -0.836  -0.806  -0.806
 17 A    18 A    19 A    20 A    21 A    22 A    23 A    24 A                  
 -0.804  -0.703  -0.656  -0.656  -0.643  -0.643  -0.637  -0.634
 25 A    26 A    27 A    28 A    29 A    30 A    31 A    32 A                  
 -0.631  -0.631  -0.618  -0.618  -0.600  -0.488  -0.488  -0.329
 33 A    34 A    35 A    36 A    37 A    38 A    39 A    40 A                  
 -0.329
 41 A                                                                          
 -- Virtual --                   
  0.027   0.088   0.112   0.112   0.116   0.116   0.134   0.143
 42 A    43 A    44 A    45 A    46 A    47 A    48 A    49 A                  
  0.159   0.159   0.195   0.195   0.258   0.304   0.365   0.365
 50 A    51 A    52 A    53 A    54 A    55 A    56 A    57 A                  
  0.398   0.398   0.401   0.520   0.538   0.540   0.540   0.655
 58 A    59 A    60 A    61 A    62 A    63 A    64 A    65 A                  
  0.655   0.672   0.721   0.721   0.772   0.781   0.796   0.796
 66 A    67 A    68 A    69 A    70 A    71 A    72 A    73 A                  
  0.832   0.867   0.867   0.919   0.928   0.928   0.995   1.015
 74 A    75 A    76 A    77 A    78 A    79 A    80 A    81 A                  
  1.021   1.021   1.178   1.229   1.229   1.248   1.248   1.282
 82 A    83 A    84 A    85 A    86 A    87 A    88 A    89 A                  
  1.282   1.288   1.301   1.308   1.308   1.320   1.335   1.355
 90 A    91 A    92 A    93 A    94 A    95 A    96 A    97 A                  
  1.355   1.409   1.409   1.439   1.439   1.454   1.484   1.484
 98 A    99 A   100 A   101 A   102 A   103 A   104 A   105 A                  
  1.549   1.570   1.570   1.585   1.677   1.677   1.701   1.794
106 A   107 A   108 A   109 A   110 A   111 A   112 A   113 A                  
  1.799   1.799   2.105   2.110   2.110   2.120   2.188   2.188
114 A   115 A   116 A   117 A   118 A   119 A   120 A   121 A                  
  2.315   2.406   2.406   2.853   2.936   2.936   2.936   2.940
122 A   123 A   124 A   125 A   126 A   127 A   128 A   129 A                  
  2.940   2.941   2.941   2.955   3.063   3.073   3.073   3.238
130 A   131 A   132 A   133 A   134 A   135 A   136 A   137 A                  
  3.301   3.301   3.488   3.488   3.492   3.570   3.570   3.742
138 A   139 A   140 A   141 A   142 A   143 A   144 A   145 A                  
  3.742   3.840   3.853   3.853   3.859   3.941   4.162   4.162
146 A   147 A   148 A   149 A   150 A   151 A   152 A   153 A                  
  4.286   4.488
154 A   155 A                                                                  

 Occupation and symmetry of molecular orbitals

 Point group: C1 (1 irreducible representation).

                           A     All 
 -------------------------------------
 All molecular orbitals:
  - Alpha                  155   155 
  - Beta                   155   155 
 -------------------------------------
 Alpha orbitals:
  - Frozen occupied        17    17  
  - Active occupied        24    24  
  - Active virtual         114   114 
  - Frozen virtual         0     0   
 -------------------------------------
 Beta orbitals:
  - Frozen occupied        17    17  
  - Active occupied        24    24  
  - Active virtual         114   114 
  - Frozen virtual         0     0   
 -------------------------------------

 Import integrals:   CPU 0.01 s  wall 0.00 s

 Import integrals:   CPU 411.12 s  wall 29.84 s

 MP2 amplitudes:   CPU 7.85 s  wall 1.47 s

Running a double precision version
           CCSD T amplitudes will be solved using DIIS.

           Start     Size      MaxIter   EConv     TConv     
           3         7         200       1.00e-07  1.00e-05  
 ------------------------------------------------------------------------------
           Energy (a.u.)   Ediff      Tdiff       Comment
 ------------------------------------------------------------------------------
         -1714.98404658                           
     1   -1714.64794126   3.36e-01   8.08e-01     
     2   -1714.94869696   3.01e-01   6.28e-02     
     3   -1714.72517163   2.24e-01   3.30e-02     
     4   -1714.83048647   1.05e-01   6.68e-01     Switched to DIIS steps.
     5   -1714.84370583   1.32e-02   3.91e-02     
     6   -1714.85413219   1.04e-02   2.61e-03     
     7   -1714.85187919   2.25e-03   2.55e-02     
     8   -1714.85200339   1.24e-04   7.36e-03     
     9   -1714.85272246   7.19e-04   4.35e-03     
    10   -1714.85315727   4.35e-04   2.30e-03     
    11   -1714.85310954   4.77e-05   4.99e-04     
    12   -1714.85313117   2.16e-05   2.92e-04     
    13   -1714.85313241   1.24e-06   1.67e-04     
    14   -1714.85313560   3.18e-06   8.96e-05     
    15   -1714.85312933   6.27e-06   3.80e-05     
    16   -1714.85313371   4.38e-06   2.55e-05     
    17   -1714.85313175   1.96e-06   1.20e-05     
    18   -1714.85313099   7.52e-07   6.95e-06     
    19   -1714.85313192   9.24e-07   3.95e-06     
    20   -1714.85313156   3.57e-07   2.41e-06     
    21   -1714.85313149   6.62e-08   9.24e-07     
 ------------------------------------------------------------------------------
         -1714.85313149                           CCSD T converged.

End of double precision
 SCF energy                 = -1713.23376550
 MP2 energy                 = -1714.98404658
 CCSD correlation energy    =    -1.61936600
 CCSD total energy          = -1714.85313149

 CCSD  T1^2 = 0.1835  T2^2 = 0.5885  Leading amplitudes:

 Amplitude    Orbitals with energies
  0.1001       39 (A) A                  ->    47 (A) A                   
              -0.4879                          0.1160                     
  0.1001       39 (A) B                  ->    47 (A) B                   
              -0.4879                          0.1160                     
 -0.1001       38 (A) A                  ->    46 (A) A                   
              -0.4879                          0.1160                     
 -0.1001       38 (A) B                  ->    46 (A) B                   
              -0.4879                          0.1160                     

 Amplitude    Orbitals with energies
 -0.0610       41 (A) A      41 (A) B    ->    51 (A) A      51 (A) B     
              -0.3285       -0.3285            0.1586        0.1586       
  0.0610       41 (A) A      41 (A) B    ->    51 (A) B      51 (A) A     
              -0.3285       -0.3285            0.1586        0.1586       
  0.0610       41 (A) B      41 (A) A    ->    51 (A) A      51 (A) B     
              -0.3285       -0.3285            0.1586        0.1586       
 -0.0610       41 (A) B      41 (A) A    ->    51 (A) B      51 (A) A     
              -0.3285       -0.3285            0.1586        0.1586       

 Computing CCSD intermediates for later calculations in double precision
 Finished.

Running a double precision version
           CCSD Lambda amplitudes will be solved using DIIS.
           Start     Size      MaxIter   EConv     LConv     
           3         7         200       1.00e-07  1.00e-05  
 ------------------------------------------------------------------------------
            Enorm      Ldiff       Comment
 ------------------------------------------------------------------------------
     1     1.80e-01   7.17e-02     
     2     1.22e-01   4.36e-02     
     3     1.25e-01   2.62e-02     
     4     1.98e-02   2.43e-02     Switched to DIIS steps.
     5     1.19e-02   2.99e-03     
     6     5.54e-03   5.01e-03     
     7     3.43e-03   1.89e-03     
     8     1.40e-03   1.61e-03     
     9     7.06e-04   4.57e-04     
    10     3.54e-04   1.74e-04     
    11     1.37e-04   8.81e-05     
    12     7.56e-05   2.18e-06     
    13     4.26e-05   5.07e-06     
    14     2.63e-05   2.18e-06     
    15     1.19e-05   1.55e-06     
    16     5.78e-06   1.46e-07     
    17     2.77e-06   3.02e-07     
    18     1.64e-06   1.82e-07     
    19     9.26e-07   5.87e-08     
    20     4.78e-07   1.29e-07     
    21     2.79e-07   1.25e-07     
    22     1.73e-07   3.90e-08     
    23     1.04e-07   4.33e-08     
    24     5.10e-08   2.09e-08     
 ------------------------------------------------------------------------------
                                   CCSD Lambda converged.

 Computing density matrices in double precision...
           Orbital response amplitudes will be solved using DIIS.
           Start     Size      MaxIter   EConv     LConv     
           3         7         200       1.00e-06  1.00e-06  
 ------------------------------------------------------------------------------
            Enorm      Ldiff       Comment
 ------------------------------------------------------------------------------
     1     3.13e-01   9.70e-02     
     2     8.88e-01   4.67e-01     
     3     4.03e+00   2.64e+00     
     4     1.56e-01   3.18e+00     Switched to DIIS steps.
     5     2.01e-02   5.08e-02     
     6     7.84e-03   3.11e-03     
     7     3.42e-03   1.91e-03     
     8     2.00e-03   8.14e-04     
     9     1.17e-03   3.37e-04     
    10     1.85e-04   2.47e-04     
    11     7.31e-05   4.08e-05     
    12     4.34e-05   2.24e-05     
    13     3.05e-05   1.11e-05     
    14     1.24e-05   9.03e-07     
    15     5.75e-06   3.68e-06     
    16     1.81e-06   1.44e-06     
    17     9.78e-07   3.98e-07     
 ------------------------------------------------------------------------------
                                   Orbital response converged.

 Computing density matrices... Done.
 CCSD calculation:   CPU 15666.78 s  wall 1052.03 s

 Transferring MO TPDM to AO TPDM
 Transferring g2_o1o1o1o1
 Transferring g2_o1o1o1v1
 Transferring g2_o1o1v1v1
 Transferring g2_o1v1o1v1
 Transferring g2_o1v1v1v1
 Transferring g2_v1v1v1v1
 Adding separable TPDM
 Computing TPDM gradient
 --------------------------------------------------------
 2e gradient
  Atom          X               Y               Z
 --------------------------------------------------------
    1         -0.000000        0.000037       21.353162  
    2         -0.000000        0.000069        3.013479  
    3          3.181012       -0.000053        1.254366  
    4         -1.590505       -2.754887        1.254329  
    5         -1.590507        2.754787        1.254402  
    6          0.000000       -0.000046      -33.940015  
    7        -32.253800        0.000033        1.936759  
    8         16.126898       27.932640        1.936782  
    9         16.126902      -27.932580        1.936736  
 --------------------------------------------------------
 --------------------------------------------------------
 Final gradient
  Atom          X               Y               Z
 --------------------------------------------------------
    1         -0.000000        0.000037       21.353162  
    2         -0.000000        0.000069        3.013479  
    3          3.181012       -0.000053        1.254366  
    4         -1.590505       -2.754887        1.254329  
    5         -1.590507        2.754787        1.254402  
    6          0.000000       -0.000046      -33.940015  
    7        -32.253800        0.000033        1.936759  
    8         16.126898       27.932640        1.936782  
    9         16.126902      -27.932580        1.936736  
 --------------------------------------------------------
 Analytic gradient from two-electron contribution:   CPU 3622.05 s  wall 162.08 s

 Total ccman2 time:   CPU 19965.74 s  wall 1254.11 s

 
 --------------------------------------------------------------
 
                    Orbital Energies (a.u.)
 --------------------------------------------------------------
 
 Alpha MOs
 -- Occupied --
******** -31.9224 -27.4085 -27.3987 -27.3987 -20.6712 -20.6647 -20.6647
-20.6647 -11.3935 -11.3909 -11.3909 -11.3909  -4.1115  -2.7005  -2.6892
 -2.6892  -1.5148  -1.5085  -1.5084  -1.5084  -0.8358  -0.8055  -0.8055
 -0.8039  -0.7026  -0.6564  -0.6564  -0.6432  -0.6432  -0.6372  -0.6342
 -0.6310  -0.6310  -0.6185  -0.6185  -0.5997  -0.4879  -0.4879  -0.3285
 -0.3285
 -- Virtual --
  0.0271   0.0883   0.1118   0.1118   0.1160   0.1160   0.1339   0.1430
  0.1586   0.1586   0.1953   0.1953   0.2583   0.3039   0.3653   0.3653
  0.3976   0.3976   0.4010   0.5201   0.5378   0.5398   0.5398   0.6548
  0.6548   0.6717   0.7208   0.7208   0.7723   0.7812   0.7960   0.7960
  0.8320   0.8673   0.8673   0.9185   0.9279   0.9279   0.9951   1.0148
  1.0211   1.0211   1.1782   1.2292   1.2292   1.2476   1.2476   1.2816
  1.2816   1.2883   1.3010   1.3077   1.3077   1.3199   1.3349   1.3548
  1.3548   1.4092   1.4092   1.4391   1.4391   1.4539   1.4839   1.4839
  1.5491   1.5699   1.5699   1.5852   1.6772   1.6772   1.7008   1.7944
  1.7990   1.7990   2.1049   2.1105   2.1105   2.1195   2.1884   2.1884
  2.3146   2.4058   2.4058   2.8527   2.9361   2.9361   2.9365   2.9395
  2.9395   2.9410   2.9410   2.9549   3.0631   3.0731   3.0731   3.2383
  3.3005   3.3005   3.4880   3.4880   3.4923   3.5699   3.5699   3.7420
  3.7420   3.8396   3.8528   3.8528   3.8586   3.9405   4.1624   4.1624
  4.2864   4.4879
 --------------------------------------------------------------
 
          Ground-State Mulliken Net Atomic Charges

     Atom                 Charge (a.u.)
  ----------------------------------------
      1 Fe                   -0.252740
      2 C                     0.122820
      3 C                     0.084840
      4 C                     0.084839
      5 C                     0.084840
      6 O                    -0.042783
      7 O                    -0.027272
      8 O                    -0.027270
      9 O                    -0.027274
  ----------------------------------------
  Sum of atomic charges =     0.000000

 -----------------------------------------------------------------
                    Cartesian Multipole Moments
 -----------------------------------------------------------------
    Charge (ESU x 10^10)
                -0.0000
    Dipole Moment (Debye)
         X      -0.0000      Y      -0.0000      Z      -1.0391
       Tot       1.0391
    Quadrupole Moments (Debye-Ang)
        XX     -61.4654     XY       0.0001     YY     -61.4654
        XZ      -0.0000     YZ      -0.0000     ZZ     -56.6614
    Octopole Moments (Debye-Ang^2)
       XXX      -8.0197    XXY      -0.0001    XYY       8.0197
       YYY      -0.0003    XXZ     -20.3416    XYZ       0.0000
       YYZ     -20.3416    XZZ       0.0000    YZZ      -0.0000
       ZZZ     -78.7013
    Hexadecapole Moments (Debye-Ang^3)
      XXXX    -685.2679   XXXY       0.0002   XXYY    -228.4226
      XYYY       0.0004   YYYY    -685.2679   XXXZ       1.4599
      XXYZ       0.0000   XYYZ      -1.4599   YYYZ       0.0000
      XXZZ    -170.8388   XYZZ       0.0000   YYZZ    -170.8388
      XZZZ      -0.0000   YZZZ       0.0000   ZZZZ    -461.4869
 -----------------------------------------------------------------
 DrvMan completing analytic gradient of the correlated energy
 Correlated dipole moment
            1
    1  -0.0000000
    2  -0.0000147
    3  -0.4088077
 Energy read as -1714.853131494
 Full Analytical Gradient: (in a.u., or Hartree/Bohr)
             1             2             3             4             5
    1    0.00000000    0.00000000    0.00028124   -0.00014258   -0.00013866
    2    0.00000042   -0.00000041    0.00000030   -0.00024666    0.00024046
    3    0.00008488   -0.00119526    0.00000625    0.00000633    0.00000617
             6             7             8             9
    1    0.00000000   -0.00016169    0.00008261    0.00007908
    2    0.00000018   -0.00000013    0.00014295   -0.00013710
    3    0.00110079   -0.00000305   -0.00000304   -0.00000306
 Gradient time:  CPU 20.25 s  wall 8.85 s
 Geometry Optimization Parameters
   NAtoms,    NIC,     NZ,  NCons,   NDum,   NFix, NCnnct, MaxDiis
        9      48       9       0       0       1       0       0

 Cartesian Hessian Update
 Hessian updated using BFGS update


** GEOMETRY OPTIMIZATION IN CARTESIAN COORDINATES **
   Searching for a Minimum

   Optimization Cycle:   2

                       Coordinates (Angstroms)
     ATOM                X               Y               Z
      1  Fe        0.0000000000    0.0000002453   -0.0000035462
      2  C         0.0000000000   -0.0000014212    1.7865303398
      3  C         1.8480237343    0.0000012598   -0.0784272690
      4  C        -0.9240129764   -1.6004361622   -0.0784264406
      5  C        -0.9240107578    1.6004348388   -0.0784280976
      6  O         0.0000000000    0.0000007802    2.9366501335
      7  O         2.9970388869   -0.0000003012   -0.0988817403
      8  O        -1.4985190501   -2.5955114321   -0.0988820113
      9  O        -1.4985198369    2.5955121925   -0.0988814692
   Point Group: c1    Number of degrees of freedom:    21


   Energy is  -1714.853131494

            Atoms with "Fixed" Coordinates
                Atom    Coordinates
                     1        X  Y  Z

 23 Hessian modes will be used to form the next step
  Hessian Eigenvalues:
     0.977624    1.000000    1.000000    1.000000    1.000000    1.000000
     1.000000    1.000000    1.000000    1.000000    1.000000    1.000000
[...]

 MP2 amplitudes:   CPU 7.97 s  wall 1.58 s

Running a double precision version
           CCSD T amplitudes will be solved using DIIS.

           Start     Size      MaxIter   EConv     TConv     
           3         7         200       1.00e-07  1.00e-05  
 ------------------------------------------------------------------------------
           Energy (a.u.)   Ediff      Tdiff       Comment
 ------------------------------------------------------------------------------
         -1714.98400156                           
     1   -1714.64800464   3.36e-01   8.08e-01     
     2   -1714.94864776   3.01e-01   6.29e-02     
     3   -1714.72524383   2.23e-01   3.30e-02     
     4   -1714.83050125   1.05e-01   6.68e-01     Switched to DIIS steps.
     5   -1714.84371282   1.32e-02   3.91e-02     
     6   -1714.85413040   1.04e-02   2.63e-03     
     7   -1714.85187965   2.25e-03   2.55e-02     
     8   -1714.85200411   1.24e-04   7.35e-03     
     9   -1714.85272386   7.20e-04   4.36e-03     
    10   -1714.85315786   4.34e-04   2.30e-03     
    11   -1714.85311020   4.77e-05   4.98e-04     
    12   -1714.85313183   2.16e-05   2.92e-04     
    13   -1714.85313308   1.25e-06   1.67e-04     
    14   -1714.85313625   3.18e-06   8.96e-05     
    15   -1714.85312997   6.28e-06   3.80e-05     
    16   -1714.85313436   4.39e-06   2.55e-05     
    17   -1714.85313240   1.96e-06   1.20e-05     
    18   -1714.85313164   7.62e-07   6.95e-06     
    19   -1714.85313257   9.29e-07   3.97e-06     
    20   -1714.85313222   3.56e-07   2.41e-06     
    21   -1714.85313215   6.61e-08   9.24e-07     
 ------------------------------------------------------------------------------
         -1714.85313215                           CCSD T converged.

End of double precision
 SCF energy                 = -1713.23383388
 MP2 energy                 = -1714.98400156
 CCSD correlation energy    =    -1.61929827
 CCSD total energy          = -1714.85313215

 CCSD  T1^2 = 0.1835  T2^2 = 0.5884  Leading amplitudes:

 Amplitude    Orbitals with energies
  0.1005       39 (A) A                  ->    47 (A) A                   
              -0.4879                          0.1160                     
  0.1005       39 (A) B                  ->    47 (A) B                   
              -0.4879                          0.1160                     
  0.1005       38 (A) A                  ->    46 (A) A                   
              -0.4879                          0.1160                     
  0.1005       38 (A) B                  ->    46 (A) B                   
              -0.4879                          0.1160                     

 Amplitude    Orbitals with energies
 -0.0610       41 (A) A      41 (A) B    ->    50 (A) A      50 (A) B     
              -0.3285       -0.3285            0.1587        0.1587       
  0.0610       41 (A) A      41 (A) B    ->    50 (A) B      50 (A) A     
              -0.3285       -0.3285            0.1587        0.1587       
  0.0610       41 (A) B      41 (A) A    ->    50 (A) A      50 (A) B     
              -0.3285       -0.3285            0.1587        0.1587       
 -0.0610       41 (A) B      41 (A) A    ->    50 (A) B      50 (A) A     
              -0.3285       -0.3285            0.1587        0.1587       

 Computing CCSD intermediates for later calculations in double precision
 Finished.

Running a double precision version
           CCSD Lambda amplitudes will be solved using DIIS.
           Start     Size      MaxIter   EConv     LConv     
           3         7         200       1.00e-07  1.00e-05  
 ------------------------------------------------------------------------------
            Enorm      Ldiff       Comment
 ------------------------------------------------------------------------------
     1     1.80e-01   7.17e-02     
     2     1.22e-01   4.36e-02     
     3     1.25e-01   2.62e-02     
     4     1.98e-02   2.43e-02     Switched to DIIS steps.
     5     1.19e-02   2.99e-03     
     6     5.54e-03   5.00e-03     
     7     3.43e-03   1.89e-03     
     8     1.40e-03   1.61e-03     
     9     7.06e-04   4.57e-04     
    10     3.54e-04   1.74e-04     
    11     1.37e-04   8.80e-05     
    12     7.55e-05   2.18e-06     
    13     4.25e-05   5.09e-06     
    14     2.63e-05   2.17e-06     
    15     1.19e-05   1.55e-06     
    16     5.77e-06   1.46e-07     
    17     2.76e-06   3.03e-07     
    18     1.64e-06   1.82e-07     
    19     9.24e-07   5.83e-08     
    20     4.76e-07   1.29e-07     
    21     2.78e-07   1.25e-07     
    22     1.73e-07   3.89e-08     
    23     1.04e-07   4.32e-08     
    24     5.08e-08   2.09e-08     
 ------------------------------------------------------------------------------
                                   CCSD Lambda converged.

 Computing density matrices in double precision...
           Orbital response amplitudes will be solved using DIIS.
           Start     Size      MaxIter   EConv     LConv     
           3         7         200       1.00e-06  1.00e-06  
 ------------------------------------------------------------------------------
            Enorm      Ldiff       Comment
 ------------------------------------------------------------------------------
     1     3.13e-01   9.71e-02     
     2     8.88e-01   4.67e-01     
     3     4.03e+00   2.64e+00     
     4     1.56e-01   3.18e+00     Switched to DIIS steps.
     5     2.00e-02   5.08e-02     
     6     7.84e-03   3.11e-03     
     7     3.42e-03   1.90e-03     
     8     2.00e-03   8.13e-04     
     9     1.17e-03   3.36e-04     
    10     1.85e-04   2.47e-04     
    11     7.29e-05   4.07e-05     
    12     4.33e-05   2.24e-05     
    13     3.05e-05   1.11e-05     
    14     1.23e-05   9.27e-07     
    15     5.74e-06   3.68e-06     
    16     1.79e-06   1.44e-06     
    17     9.79e-07   3.93e-07     
 ------------------------------------------------------------------------------
                                   Orbital response converged.

 Computing density matrices... Done.
 CCSD calculation:   CPU 15669.93 s  wall 1012.45 s

 Transferring MO TPDM to AO TPDM
 Transferring g2_o1o1o1o1
 Transferring g2_o1o1o1v1
 Transferring g2_o1o1v1v1
 Transferring g2_o1v1o1v1
 Transferring g2_o1v1v1v1
 Transferring g2_v1v1v1v1
 Adding separable TPDM
 Computing TPDM gradient
 --------------------------------------------------------
 2e gradient
  Atom          X               Y               Z
 --------------------------------------------------------
    1          0.000005        0.000012       21.349805  
    2          0.000001        0.000067        3.025713  
    3          3.178344       -0.000045        1.254752  
    4         -1.589160       -2.752549        1.254717  
    5         -1.589195        2.752519        1.254785  
    6         -0.000000       -0.000044      -33.949340  
    7        -32.251892        0.000031        1.936522  
    8         16.125934       27.930967        1.936544  
    9         16.125964      -27.930958        1.936501  
 --------------------------------------------------------
 --------------------------------------------------------
 Final gradient
  Atom          X               Y               Z
 --------------------------------------------------------
    1          0.000005        0.000012       21.349805  
    2          0.000001        0.000067        3.025713  
    3          3.178344       -0.000045        1.254752  
    4         -1.589160       -2.752549        1.254717  
    5         -1.589195        2.752519        1.254785  
    6         -0.000000       -0.000044      -33.949340  
    7        -32.251892        0.000031        1.936522  
    8         16.125934       27.930967        1.936544  
    9         16.125964      -27.930958        1.936501  
 --------------------------------------------------------
 Analytic gradient from two-electron contribution:   CPU 3777.06 s  wall 174.69 s

 Total ccman2 time:   CPU 20067.52 s  wall 1238.26 s

 
 --------------------------------------------------------------
 
                    Orbital Energies (a.u.)
 --------------------------------------------------------------
 
 Alpha MOs
 -- Occupied --
******** -31.9224 -27.4085 -27.3987 -27.3987 -20.6713 -20.6647 -20.6647
-20.6647 -11.3935 -11.3909 -11.3909 -11.3909  -4.1115  -2.7004  -2.6892
 -2.6892  -1.5153  -1.5084  -1.5083  -1.5083  -0.8358  -0.8055  -0.8055
 -0.8040  -0.7027  -0.6565  -0.6565  -0.6431  -0.6431  -0.6371  -0.6341
 -0.6309  -0.6309  -0.6185  -0.6185  -0.5997  -0.4879  -0.4879  -0.3285
 -0.3285
 -- Virtual --
  0.0271   0.0883   0.1118   0.1118   0.1160   0.1160   0.1339   0.1430
  0.1587   0.1587   0.1954   0.1954   0.2583   0.3039   0.3653   0.3653
  0.3977   0.3977   0.4010   0.5202   0.5377   0.5398   0.5398   0.6548
  0.6548   0.6718   0.7208   0.7208   0.7724   0.7812   0.7960   0.7960
  0.8320   0.8674   0.8674   0.9188   0.9279   0.9279   0.9950   1.0147
  1.0211   1.0211   1.1782   1.2292   1.2292   1.2476   1.2476   1.2815
  1.2815   1.2883   1.3011   1.3078   1.3078   1.3199   1.3350   1.3549
  1.3549   1.4091   1.4091   1.4392   1.4392   1.4539   1.4839   1.4839
  1.5492   1.5700   1.5700   1.5854   1.6772   1.6772   1.7007   1.7943
  1.7990   1.7990   2.1049   2.1105   2.1105   2.1195   2.1884   2.1884
  2.3147   2.4058   2.4058   2.8528   2.9361   2.9361   2.9365   2.9395
  2.9395   2.9411   2.9411   2.9549   3.0633   3.0731   3.0731   3.2383
  3.3005   3.3005   3.4882   3.4882   3.4923   3.5699   3.5699   3.7420
  3.7420   3.8397   3.8527   3.8527   3.8590   3.9406   4.1624   4.1624
  4.2864   4.4879
 --------------------------------------------------------------
 
          Ground-State Mulliken Net Atomic Charges

     Atom                 Charge (a.u.)
  ----------------------------------------
      1 Fe                   -0.252865
      2 C                     0.122704
      3 C                     0.084853
      4 C                     0.084853
      5 C                     0.084853
      6 O                    -0.042193
      7 O                    -0.027401
      8 O                    -0.027402
      9 O                    -0.027402
  ----------------------------------------
  Sum of atomic charges =     0.000000

 -----------------------------------------------------------------
                    Cartesian Multipole Moments
 -----------------------------------------------------------------
    Charge (ESU x 10^10)
                -0.0000
    Dipole Moment (Debye)
         X       0.0000      Y      -0.0000      Z      -1.0330
       Tot       1.0330
    Quadrupole Moments (Debye-Ang)
        XX     -61.4724     XY       0.0000     YY     -61.4724
        XZ      -0.0000     YZ      -0.0000     ZZ     -56.6431
    Octopole Moments (Debye-Ang^2)
       XXX      -8.0289    XXY      -0.0000    XYY       8.0289
       YYY      -0.0000    XXZ     -20.3362    XYZ       0.0000
       YYZ     -20.3362    XZZ       0.0000    YZZ      -0.0000
       ZZZ     -78.6369
    Hexadecapole Moments (Debye-Ang^3)
      XXXX    -685.3373   XXXY      -0.0000   XXYY    -228.4458
      XYYY      -0.0001   YYYY    -685.3374   XXXZ       1.4601
      XXYZ       0.0000   XYYZ      -1.4602   YYYZ       0.0000
      XXZZ    -170.8266   XYZZ      -0.0000   YYZZ    -170.8266
      XZZZ      -0.0000   YZZZ       0.0000   ZZZZ    -461.2627
 -----------------------------------------------------------------
 DrvMan completing analytic gradient of the correlated energy
 Correlated dipole moment
            1
    1   0.0000004
    2  -0.0000017
    3  -0.4064198
 Energy read as -1714.853132150
 Full Analytical Gradient: (in a.u., or Hartree/Bohr)
             1             2             3             4             5
    1   -0.00000004   -0.00000001    0.00006253   -0.00003128   -0.00003097
    2    0.00000045   -0.00000035    0.00000019   -0.00005401    0.00005386
    3    0.00006459   -0.00004004    0.00000374    0.00000386    0.00000363
             6             7             8             9
    1    0.00000000    0.00004686   -0.00002356   -0.00002354
    2    0.00000016   -0.00000009   -0.00004088    0.00004068
    3   -0.00002305   -0.00000425   -0.00000429   -0.00000420
 Gradient time:  CPU 25.80 s  wall 19.24 s
 Geometry Optimization Parameters
   NAtoms,    NIC,     NZ,  NCons,   NDum,   NFix, NCnnct, MaxDiis
        9      48       9       0       0       1       0       0

 Cartesian Hessian Update
 Hessian updated using BFGS update


** GEOMETRY OPTIMIZATION IN CARTESIAN COORDINATES **
   Searching for a Minimum

   Optimization Cycle:   3

                       Coordinates (Angstroms)
     ATOM                X               Y               Z
      1  Fe        0.0000000000    0.0000003549   -0.0000075281
      2  C         0.0000000000   -0.0000013675    1.7868059677
      3  C         1.8479578413    0.0000011791   -0.0784308520
      4  C        -0.9239795783   -1.6003783955   -0.0784300327
      5  C        -0.9239782630    1.6003784756   -0.0784316715
      6  O         0.0000000000    0.0000007225    2.9363931414
      7  O         2.9970755828   -0.0000003012   -0.0988830419
      8  O        -1.4985378123   -2.5955439270   -0.0988833188
      9  O        -1.4985377706    2.5955432567   -0.0988827648
   Point Group: c1    Number of degrees of freedom:    21


   Energy is  -1714.853132150

            Atoms with "Fixed" Coordinates
                Atom    Coordinates
                     1        X  Y  Z

 23 Hessian modes will be used to form the next step
  Hessian Eigenvalues:
     0.965282    0.999677    1.000000    1.000000    1.000000    1.000000
     1.000000    1.000000    1.000000    1.000000    1.000000    1.000000
     1.000000    1.000000    1.000000    1.000000    1.000000    1.000000
     1.000000    1.000000    1.000000    1.000006    2.269224

 Minimum search - taking simple RFO step
 Searching for Lamda that Minimizes Along All modes
 Value Taken    Lamda =  -0.00000002
 Step Taken.  Stepsize is  0.000148

                             Maximum     Tolerance    Cnvgd?
         Gradient           0.000063      0.000300     YES
         Displacement       0.000064      0.001200     YES
         Energy change     -0.000001      0.000001     YES


                       Distance Matrix (Angstroms)
             Fe(  1)   C (  2)   C (  3)   C (  4)   C (  5)   O (  6)
   C (  2)  1.786813
   C (  3)  1.849621  2.625654
   C (  4)  1.849622  2.625652  3.200758
   C (  5)  1.849621  2.625655  3.200756  3.200757
   O (  6)  2.936401  1.149587  3.536115  3.536115  3.536116
   O (  7)  2.998706  3.540944  1.149300  4.235127  4.235126  4.265602
   O (  8)  2.998707  3.540943  4.235128  1.149300  4.235127  4.265603
   O (  9)  2.998706  3.540945  4.235126  4.235126  1.149300  4.265602
             O (  7)   O (  8)
   O (  8)  5.191087
   O (  9)  5.191087  5.191087
 
 Final energy is   -1714.85313214974     


 ******************************
 **  OPTIMIZATION CONVERGED  **
 ******************************

                       Coordinates (Angstroms)
     ATOM                X               Y               Z
      1  Fe        0.0000000000    0.0000003549   -0.0000075281
      2  C         0.0000000000   -0.0000013675    1.7868059677
      3  C         1.8479578413    0.0000011791   -0.0784308520
      4  C        -0.9239795783   -1.6003783955   -0.0784300327
      5  C        -0.9239782630    1.6003784756   -0.0784316715
      6  O         0.0000000000    0.0000007225    2.9363931414
      7  O         2.9970755828   -0.0000003012   -0.0988830419
      8  O        -1.4985378123   -2.5955439270   -0.0988833188
      9  O        -1.4985377706    2.5955432567   -0.0988827648

Z-matrix Print:
$molecule
0 1
Fe
C  1 1.786813
O  2 1.149587 1 179.999841
C  1 1.849621 2 92.430125 3 -29.999988 0
O  4 1.149300 1 178.589521 2 -0.001988 0
C  1 1.849621 2 92.430051 3 89.999977 0
O  6 1.149300 1 178.589602 2 0.003981 0
C  1 1.849622 2 92.429977 3 -149.999988 0
O  8 1.149300 1 178.589682 2 -0.001989 0
$end

 
 --------------------------------------------------------------
 
                    Orbital Energies (a.u.)
 --------------------------------------------------------------
 
 Alpha MOs
 -- Occupied --
******** -31.9224 -27.4085 -27.3987 -27.3987 -20.6713 -20.6647 -20.6647
-20.6647 -11.3935 -11.3909 -11.3909 -11.3909  -4.1115  -2.7004  -2.6892
 -2.6892  -1.5153  -1.5084  -1.5083  -1.5083  -0.8358  -0.8055  -0.8055
 -0.8040  -0.7027  -0.6565  -0.6565  -0.6431  -0.6431  -0.6371  -0.6341
 -0.6309  -0.6309  -0.6185  -0.6185  -0.5997  -0.4879  -0.4879  -0.3285
 -0.3285
 -- Virtual --
  0.0271   0.0883   0.1118   0.1118   0.1160   0.1160   0.1339   0.1430
  0.1587   0.1587   0.1954   0.1954   0.2583   0.3039   0.3653   0.3653
  0.3977   0.3977   0.4010   0.5202   0.5377   0.5398   0.5398   0.6548
  0.6548   0.6718   0.7208   0.7208   0.7724   0.7812   0.7960   0.7960
  0.8320   0.8674   0.8674   0.9188   0.9279   0.9279   0.9950   1.0147
  1.0211   1.0211   1.1782   1.2292   1.2292   1.2476   1.2476   1.2815
  1.2815   1.2883   1.3011   1.3078   1.3078   1.3199   1.3350   1.3549
  1.3549   1.4091   1.4091   1.4392   1.4392   1.4539   1.4839   1.4839
  1.5492   1.5700   1.5700   1.5854   1.6772   1.6772   1.7007   1.7943
  1.7990   1.7990   2.1049   2.1105   2.1105   2.1195   2.1884   2.1884
  2.3147   2.4058   2.4058   2.8528   2.9361   2.9361   2.9365   2.9395
  2.9395   2.9411   2.9411   2.9549   3.0633   3.0731   3.0731   3.2383
  3.3005   3.3005   3.4882   3.4882   3.4923   3.5699   3.5699   3.7420
  3.7420   3.8397   3.8527   3.8527   3.8590   3.9406   4.1624   4.1624
  4.2864   4.4879
 --------------------------------------------------------------
 
          Ground-State Mulliken Net Atomic Charges

     Atom                 Charge (a.u.)
  ----------------------------------------
      1 Fe                   -0.252865
      2 C                     0.122704
      3 C                     0.084853
      4 C                     0.084853
      5 C                     0.084853
      6 O                    -0.042193
      7 O                    -0.027401
      8 O                    -0.027402
      9 O                    -0.027402
  ----------------------------------------
  Sum of atomic charges =     0.000000

 -----------------------------------------------------------------
                    Cartesian Multipole Moments
 -----------------------------------------------------------------
    Charge (ESU x 10^10)
                -0.0000
    Dipole Moment (Debye)
         X       0.0000      Y      -0.0000      Z      -1.0330
       Tot       1.0330
    Quadrupole Moments (Debye-Ang)
        XX     -61.4724     XY       0.0000     YY     -61.4724
        XZ      -0.0000     YZ      -0.0000     ZZ     -56.6431
    Octopole Moments (Debye-Ang^2)
       XXX      -8.0289    XXY      -0.0000    XYY       8.0289
       YYY      -0.0000    XXZ     -20.3362    XYZ       0.0000
       YYZ     -20.3362    XZZ       0.0000    YZZ      -0.0000
       ZZZ     -78.6369
    Hexadecapole Moments (Debye-Ang^3)
      XXXX    -685.3373   XXXY      -0.0000   XXYY    -228.4458
      XYYY      -0.0001   YYYY    -685.3374   XXXZ       1.4601
      XXYZ       0.0000   XYYZ      -1.4602   YYYZ       0.0000
      XXZZ    -170.8266   XYZZ      -0.0000   YYZZ    -170.8266
      XZZZ      -0.0000   YZZZ       0.0000   ZZZZ    -461.2627
 -----------------------------------------------------------------
 Total job time:  4300.77s(wall), 67873.45s(cpu) 
 Tue Jan 16 08:44:29 2024

        *************************************************************
        *                                                           *
        *  Thank you very much for using Q-Chem.  Have a nice day.  *
        *                                                           *
        *************************************************************


